20
Properties=species:S:1:pos:R:3 energy=1.8685387262539266 pbc="F F F"
C        1.26490022       0.86459989      -0.00000000
H        1.29219994       1.37859976       0.84520025
H        1.23220024       1.46639979      -0.78459993
H        2.15600024       0.24039991      -0.06620007
C        0.00000000       0.00000000       0.00000000
H        0.01570016      -0.59230011      -0.81560019
H        0.01570016      -0.59230011       0.81570021
N       -1.26490022       0.79640006       0.00000000
H       -1.87450019       0.44439984       0.70809996
H       -1.04999977       1.75350012       0.18569992
H       -1.70290019       0.71570000      -0.89339983
C       -2.52740009       3.37540022      -2.28449981
H       -2.72770001       4.19029978      -2.83160025
H       -2.35439989       2.60179976      -2.89749975
H       -3.31710023       3.16610005      -1.70389981
C       -1.30120019       3.62710018      -1.41480025
H       -1.03100019       2.76860012      -0.93409990
H       -1.50699985       4.39939992      -0.67369974
O       -0.20319981       4.03980019      -2.23960019
H        0.34030010       4.74340003      -1.77029991
6
Properties=species:S:1:pos:R:3 energy=-3.7169659105023944 pbc="F F F"
O       -2.13839981       1.36690018       1.82280011
H       -1.72169974       2.21390017       2.15359989
H       -1.51250012       0.83959997       1.24819992
O        0.00000000       0.00000000       0.00000000
H        0.55859999      -0.82920005       0.00000000
H        0.55880002       0.82920005      -0.00000000
25
Properties=species:S:1:pos:R:3 energy=-15.966352039826084 pbc="F F F"
C       -1.22589986      -0.79509987       0.00000000
H       -1.65029998      -0.74439993       0.89910012
H       -1.00470008      -1.74049982      -0.22239995
H       -1.94380018      -0.43289977      -0.73589976
N        0.00000000       0.00000000       0.00000000
H       -0.08959976       1.00289982       0.00060009
C        1.22589986      -0.51479999       0.00000000
N        1.39590015      -1.83090022      -0.00110016
H        0.61740004      -2.45170023      -0.02220004
H        2.32970001      -2.21020016       0.01840002
N        2.28429978       0.28469998      -0.00090013
H        2.15220022       1.27950022      -0.02129991
H        3.20509988      -0.09640021       0.01729986
C       -0.66910013      -5.90269976      -0.35289981
H       -1.18569985      -5.04310007      -0.19070012
H       -1.37869978      -6.72849985      -0.30199985
H       -0.25479988      -5.89130023      -1.36099986
N        0.38420012      -5.99320018       0.64440025
H        0.96050003      -6.84710010       0.79499985
C        0.68629998      -4.97380008       1.44360019
O        0.08550022      -3.89690012       1.41659998
C        1.82899995      -5.22250014       2.42970022
H        1.49350001      -5.81919983       3.16360021
H        2.66039978      -5.71500008       1.92540016
H        2.16519999      -4.28549982       2.87339996
20
Properties=species:S:1:pos:R:3 energy=-2.7625548410956937 pbc="F F F"
C        1.26820017       0.87499981      -0.00000000
H        1.47170003       1.12749989       0.93850001
H        1.08850005       1.68330000      -0.54880016
H        2.12590011       0.34760010      -0.41750018
C        0.00000000       0.00000000       0.00000000
H        0.01419994      -0.58430001      -0.81649979
H        0.01399991      -0.58440003       0.81669982
N       -1.26820017       0.80989990       0.00000000
H       -1.16130002       1.57860017      -0.62590022
H       -2.02249994       0.23020002      -0.29759974
H       -1.43849998       1.14390015       0.92319991
C        3.35290013      -0.91430021       4.73539993
H        3.39320015      -0.02799982       4.26839998
H        3.36320004      -0.76299998       5.72630013
H        4.15620013      -1.45690000       4.47820023
C        2.08339977      -1.65060002       4.33890015
H        1.49720002      -1.81600018       5.15399974
H        2.30790003      -2.61140009       3.87560021
O        1.35439996      -0.83439974       3.41430003
H        1.10189988      -1.36779979       2.60020006
6
Properties=species:S:1:pos:R:3 energy=-3.8134872113801066 pbc="F F F"
O        1.51889999       2.22699995       0.08790004
H        2.11200021       2.32569996      -0.71169995
H        0.96659985       3.05919990       0.14270004
O        0.00000000       0.00000000       0.00000000
H        0.55910006      -0.82960011      -0.00000000
H        0.55859999       0.82960011       0.00000000
23
Properties=species:S:1:pos:R:3 energy=-1.3338029452178246 pbc="F F F"
C       -1.15090010      -2.09209998       0.02059981
H       -0.21920002      -2.44800022       0.11999993
H       -1.53110017      -2.45559974      -0.93399989
H       -1.83549983      -2.45559974       0.78699975
N       -1.12600020      -0.67499993       0.00000000
H       -1.98710011      -0.07450021      -0.01620023
C        0.00000000       0.00000000       0.00000000
O        1.12600020      -0.58420000      -0.00000000
C       -0.12239975       1.50890013       0.03360011
H       -1.00709990       1.74829989       0.39830004
H        0.63099990       1.85230015       0.74250018
H        0.06280011       1.89489997      -0.96880017
C        3.21219985      -3.11540011       1.15609980
H        2.30249978      -2.72510017       0.96749998
H        3.29440012      -4.13050011       0.76730007
H        3.96449986      -2.47980007       0.68899984
C        3.39039974      -3.18609977       2.64199976
H        2.68180024      -3.74849978       3.01390021
H        4.28790016      -3.52130019       2.83319996
C        3.26930019      -1.82089983       3.28010016
H        3.99140006      -1.24069989       2.92009985
H        2.37750006      -1.44419974       3.05390019
H        3.35670015      -1.80209975       4.36639990
20
Properties=species:S:1:pos:R:3 energy=-1.0492027571477016 pbc="F F F"
C        1.23580023       0.88609983      -0.00000000
H        1.10350011       1.61299987      -0.67369974
H        2.02430020       0.32870001      -0.25849989
H        1.42460008       1.33690007       0.97429991
C        0.00000000       0.00000000       0.00000000
H        0.01110002      -0.57370006      -0.81649979
H        0.01150008      -0.57410012       0.81669982
N       -1.23580023       0.83000016       0.00000000
H       -2.01010026       0.27200026      -0.29610005
H       -1.40469984       1.17260007       0.92380000
H       -1.11780007       1.59950003      -0.62689983
C       -3.97740015       3.33579977       0.76810019
H       -3.09949992       3.76349984       0.65750004
H       -3.91779997       2.61759993       1.58570014
H       -4.67440008       4.09679999       1.11900024
C       -4.42650014       2.72790004      -0.54790003
H       -3.62049975       2.47389974      -1.08120006
H       -4.97249989       1.91110020      -0.35999978
O       -5.20750008       3.63320001      -1.30549975
H       -5.70629987       3.13279998      -2.01250008
6
Properties=species:S:1:pos:R:3 energy=1.0030858177664788 pbc="F F F"
O       -3.39650010       1.24739980      -1.00170018
H       -3.96230007       0.42360001      -1.00420001
H       -3.78350009       1.96590021      -0.42360001
O        0.00000000       0.00000000       0.00000000
H        0.55900005      -0.82879999       0.00000000
H        0.55890003       0.82879999      -0.00000000
25
Properties=species:S:1:pos:R:3 energy=-6.705097982086 pbc="F F F"
C       -1.22579984      -0.78069990      -0.00000000
H       -1.90330013      -0.34040012       0.54050001
H       -1.03830019      -1.69779998       0.26450023
H       -1.57289988      -0.79250002      -1.03319998
N        0.00000000       0.00000000       0.00000000
H       -0.09099996       1.01300023       0.00010001
C        1.22579984      -0.49830025       0.00000000
N        1.97089987      -0.29509990      -1.07430011
H        1.66630018       0.22259998      -1.86010022
H        2.91309989      -0.69239980      -1.09710024
N        1.86419976      -0.58309984       1.15120015
H        1.44949998      -0.26390014       2.00150008
H        2.79340001      -0.97749984       1.17980006
C       -2.07019998      -3.80689978       3.27690023
H       -2.74199997      -3.28740016       2.72259980
H       -1.11440010      -3.29110017       3.18619978
H       -2.38450002      -3.81549997       4.32050013
N       -2.02519981      -5.15399974       2.74620005
H       -1.98420021      -6.00479974       3.32430022
C       -2.03550024      -5.35249993       1.43699976
O       -2.19299978      -4.42799983       0.63029980
C       -2.07430004      -6.79799986       0.96719994
H       -1.78109989      -6.82759992      -0.00160023
H       -1.41529979      -7.43500010       1.55720025
H       -3.10750002      -7.14320015       1.00639980
23
Properties=species:S:1:pos:R:3 energy=-1.5541505607652817 pbc="F F F"
C       -1.15090010      -2.09209998       0.02059981
H       -0.21920002      -2.44800022       0.11999993
H       -1.53110017      -2.45559974      -0.93399989
H       -1.83549983      -2.45559974       0.78699975
N       -1.12600020      -0.67499993       0.00000000
H       -1.98710011      -0.07450021      -0.01620023
C        0.00000000       0.00000000       0.00000000
O        1.12600020      -0.58420000      -0.00000000
C       -0.12239975       1.50890013       0.03360011
H       -1.00709990       1.74829989       0.39830004
H        0.63099990       1.85230015       0.74250018
H        0.06280011       1.89489997      -0.96880017
C        4.70269995      -0.14240000      -0.56909992
H        5.64190007      -0.50390000      -0.58580023
H        4.04179995      -0.87139981      -0.10030025
H        4.70259994       0.77840009       0.01409993
C        4.30379982       0.13190007      -2.01839988
H        3.40669999       0.53490026      -2.01749975
H        4.97939984       0.72330005      -2.41520023
C        4.24020013      -1.13630010      -2.86770019
H        3.69260015      -1.80920025      -2.41599982
H        3.75319993      -0.84890026      -3.79949976
H        5.23710014      -1.52909988      -3.06730002
6
Properties=species:S:1:pos:R:3 energy=-4.30166058630056 pbc="F F F"
O        2.06269995       2.18959982       0.10740022
H        1.76160023       3.10259984      -0.16610026
H        2.83010004       1.94750019      -0.48690018
O        0.00000000       0.00000000       0.00000000
H        0.55880002      -0.82950009      -0.00000000
H        0.55940011       0.82950009       0.00000000
25
Properties=species:S:1:pos:R:3 energy=-6.9277081176693915 pbc="F F F"
C       -1.24819992      -0.74429991      -0.00000000
H       -1.96719987      -0.20269974       0.39140010
H       -1.13189999      -1.60450022       0.46020002
H       -1.53030005      -0.96299986      -1.02990003
N        0.00000000       0.00000000       0.00000000
H       -0.07110025       1.02780025       0.00050007
C        1.24819992      -0.49360010       0.00000000
N        1.51889999      -1.78169997       0.23170024
H        0.75270007      -2.40949994       0.39329985
H        2.45450011      -2.10460020       0.24079997
N        2.26339993       0.37889988      -0.09459995
H        2.09059976       1.35289974      -0.18189990
H        3.20730020       0.03609994      -0.07730009
C       -5.89569981      -1.16109999       2.21030017
H       -5.31770018      -1.49239985       1.44579998
H       -6.92690002      -1.34480016       1.90849983
H       -5.65050025      -1.65550020       3.15019986
N       -5.61020023       0.21700023       2.48450022
H       -5.86470008       0.69490016       3.38280023
C       -4.99550005       1.00090006       1.61200025
O       -4.74800017       0.59479994       0.48129990
C       -4.73280008       2.44800022       2.02869978
H       -5.39919982       3.05700011       1.56239994
H       -3.80809995       2.72500015       1.71290006
H       -4.79970025       2.61399994       3.10390003
25
Properties=species:S:1:pos:R:3 energy=-15.312382398616966 pbc="F F F"
C       -1.22879975      -0.78970014      -0.00000000
H       -1.90909991      -0.33250003       0.56119984
H       -1.03279992      -1.69580022       0.35749995
H       -1.62190010      -0.89180012      -1.01150001
N        0.00000000       0.00000000       0.00000000
H       -0.08979978       1.00679986       0.00070010
C        1.22879975      -0.50820009       0.00000000
N        1.41179981      -1.82580001      -0.00000000
H        0.63560004      -2.44969994      -0.02029977
H        2.34669983      -2.19649976       0.01920014
N        2.27600017       0.31070005      -0.00319993
H        2.13469980       1.30189976      -0.02560001
H        3.20310012      -0.06099984       0.01530010
C        4.57479994       1.79479975      -3.42369981
H        4.34940008       0.91519981      -2.96389985
H        4.99119996       2.48700006      -2.69200013
H        5.31820025       1.44109982      -4.13810015
N        3.38530006       2.30870015      -4.09189981
H        3.39069979       2.72540021      -5.03779983
C        2.19079999       2.26780004      -3.50109991
O        2.02010013       1.87350005      -2.33989990
C        1.01039985       2.76349991      -4.32730005
H        0.27589977       3.04769982      -3.69409984
H        1.27610025       3.61660025      -4.95160004
H        0.61040009       1.94969998      -4.93209986
20
Properties=species:S:1:pos:R:3 energy=-6.870882135611259 pbc="F F F"
C        1.26649992       0.88780007      -0.00000000
H        1.20839997       1.49979986       0.77930022
H        1.27789999       1.40000022      -0.84969984
H        2.17340012       0.28799993       0.07599990
C        0.00000000       0.00000000       0.00000000
H        0.00549974      -0.56789975      -0.81619975
H        0.00490018      -0.56839982       0.81659981
N       -1.26649992       0.84619987      -0.00000000
H       -2.00180012       0.31140015       0.40190004
H       -1.09779981       1.66520002       0.53800018
H       -1.48410024       1.08629974      -0.94000023
C        0.94690017      -4.24559985       3.06649990
H        0.49249994      -4.23620008       3.96399979
H        2.02310003      -4.18620024       3.22910018
H        0.68209990      -5.17820007       2.56820018
C        0.49010012      -3.06929978       2.19679980
H       -0.48250007      -3.14639984       2.03969979
H        0.71519993      -2.22510020       2.65830001
O        1.16860002      -3.11349983       0.94929999
H        1.98619998      -3.68009992       1.03669996
23
Properties=species:S:1:pos:R:3 energy=-1.543527154141854 pbc="F F F"
C       -1.09570004      -2.16159999      -0.29789978
H       -0.72889980      -2.66200002       0.52580000
H       -2.07289984      -2.47859990      -0.38169975
H       -0.53790017      -2.46099999      -1.18529980
N       -1.10129979      -0.72949989      -0.00000000
H       -1.97419982      -0.20359987       0.22899985
C        0.00000000       0.00000000       0.00000000
O        1.10129979      -0.50239978       0.00000000
C       -0.17990014       1.48839980       0.08760000
H        0.66930016       1.93680022      -0.20920015
H       -0.99460020       1.79100026      -0.57030010
H       -0.39870010       1.75199990       1.12240020
C        3.94329997      -2.85640014      -0.14529989
H        4.84109990      -2.51789977       0.15629990
H        3.47630002      -2.10740008      -0.78479996
H        4.10190020      -3.78790020      -0.68879981
C        3.03679983      -3.11860004       1.05270016
H        2.05940000      -2.91510018       0.73870016
H        3.02140024      -4.15389979       1.19659985
C        3.16360021      -2.50359982       2.44959993
H        2.94390012      -3.24459978       3.13830025
H        4.10870012      -2.03070007       2.71629995
H        2.26629982      -2.03939975       2.85899999
6
Properties=species:S:1:pos:R:3 energy=1.200499942234645 pbc="F F F"
O       -2.10159977       2.58160001       1.59159994
H       -2.69650025       3.26289979       2.01690019
H       -1.16719982       2.93139990       1.65969975
O        0.00000000       0.00000000       0.00000000
H        0.55890003      -0.82920005       0.00000000
H        0.55880002       0.82920005       0.00000000
23
Properties=species:S:1:pos:R:3 energy=-2.2467406816413793 pbc="F F F"
C       -1.15339993      -2.13280005       0.11110023
H       -0.39540015      -2.51149990      -0.40180002
H       -2.07619979      -2.45080010      -0.37410024
H       -1.07939979      -2.42749990       1.15790006
N       -1.12789994      -0.70250021      -0.00000000
H       -1.99309992      -0.11289996      -0.08920023
C        0.00000000       0.00000000       0.00000000
O        1.12789994      -0.51839999      -0.00000000
C       -0.18499982       1.52229995      -0.04480014
H       -0.83000016       1.77779994       0.67789982
H        0.76080019       2.02519981       0.15710001
H       -0.59379980       1.76750003      -1.02509986
C        3.92109992      -0.59409984      -2.19029992
H        3.26019992      -0.34040012      -1.45589985
H        3.87470008       0.15639991      -2.97939998
H        4.91570013      -0.72040016      -1.76249984
C        3.38329977      -1.90069976      -2.71239991
H        2.53389997      -1.70700026      -3.19200010
H        4.05720007      -2.27590015      -3.33979982
C        3.09889983      -2.93029974      -1.67410025
H        3.91759995      -3.42200009      -1.46779999
H        2.69630022      -2.50540008      -0.89220018
H        2.37750006      -3.66250002      -2.03699993
20
Properties=species:S:1:pos:R:3 energy=-0.7016692940614989 pbc="F F F"
C        1.23950024       0.89819999       0.00000000
H        1.19029999       1.50389993       0.78689974
H        1.24849996       1.42299985      -0.84400008
H        2.15970025       0.31739996       0.06250006
C        0.00000000       0.00000000       0.00000000
H        0.02220004      -0.57509974      -0.81659981
H        0.02190000      -0.57500025       0.81669982
N       -1.23950024       0.81450003       0.00000000
H       -1.54260025       0.96219974       0.94220002
H       -1.05940007       1.69769997      -0.43389991
H       -1.95460016       0.33410026      -0.50890020
C        2.17579994       0.42120019      -3.51559990
H        2.02549985      -0.44610009      -3.04149998
H        3.10820012       0.73959976      -3.34120002
H        1.52390018       1.10179987      -3.17989993
C        1.97690021       0.22149982      -5.02349988
H        1.49080015       1.01799989      -5.43060014
H        1.40720020      -0.68700008      -5.21890015
O        3.25070014       0.10529991      -5.66549978
H        3.16159992      -0.39349988      -6.53420026
6
Properties=species:S:1:pos:R:3 energy=3.7182326416611065 pbc="F F F"
O        0.44220005      -0.68710009       2.71619993
H        1.05700025      -0.02220004       3.13999997
H        0.69589978      -0.74009984       1.75030018
O        0.00000000       0.00000000       0.00000000
H        0.55859999      -0.82890000      -0.00000000
H        0.55930009       0.82890000       0.00000000
23
Properties=species:S:1:pos:R:3 energy=-0.8674261334379275 pbc="F F F"
C       -1.12860005      -2.15989975       0.01029991
H       -0.47950017      -2.44040018       0.72269996
H       -0.74280023      -2.54590012      -0.93319977
H       -2.12910005      -2.54699975       0.20349986
N       -1.12759990      -0.71089984       0.00000000
H       -1.99709997      -0.13419987      -0.00800010
C        0.00000000       0.00000000       0.00000000
O        1.12759990      -0.50679989      -0.00000000
C       -0.17530000       1.52720013       0.00430009
H        0.69209976       1.94109979      -0.30030013
H       -0.97079993       1.84150017      -0.67119990
H       -0.41390019       1.83529980       1.02229999
C        3.09360012      -3.43770025       0.94399975
H        3.09040019      -2.53540019       1.38959977
H        2.14340000      -3.70700012       0.75720020
H        3.60080007      -3.33030003      -0.01470001
C        3.65210010      -4.44309990       1.97359974
H        3.63860026      -5.35869977       1.56760017
H        4.67170022      -4.19469989       2.26800007
C        2.75239989      -4.41349985       3.20929996
H        1.82250006      -4.66959992       2.94790017
H        3.09989998      -5.05999987       3.88749982
H        2.75030011      -3.49120006       3.59489975
6
Properties=species:S:1:pos:R:3 energy=-3.028792048606779 pbc="F F F"
O        1.49500023       2.29110024       0.39800000
H        1.12170010       3.20710017       0.54410001
H        2.09650008       2.25420018      -0.39999976
O        0.00000000       0.00000000       0.00000000
H        0.59630016      -0.80279993      -0.00000000
H        0.59530002       0.80279993      -0.00000000
25
Properties=species:S:1:pos:R:3 energy=-6.589803078759028 pbc="F F F"
C       -1.24670023      -0.79010020      -0.00000000
H       -2.02849976      -0.17290019       0.08389999
H       -1.23600026      -1.42299985       0.77430003
H       -1.39399988      -1.38299987      -0.90270012
N        0.00000000       0.00000000       0.00000000
H       -0.08820008       1.00729993       0.00070010
C        1.24670023      -0.50729996       0.00000000
N        1.44929995      -1.82740024      -0.02200001
H        0.67360025      -2.45209976      -0.05940014
H        2.38259974      -2.18589981      -0.00219979
N        2.30389998       0.30770014       0.00470015
H        2.15269976       1.29919990      -0.01170011
H        3.22369993      -0.06459984       0.02300016
C        1.51210006       2.40430024      -3.19580012
H        1.24680024       1.78549999      -2.43630012
H        0.84579981       2.18999988      -4.03140003
H        1.39459996       3.45669983      -2.93730023
N        2.91130016       2.12920006      -3.50180001
H        3.64609976       2.88150008      -3.51800024
C        3.37649985       0.91579990      -3.78499978
O        2.69409991      -0.11599988      -3.69920005
C        4.84350025       0.85490007      -4.22309977
H        4.97249989       0.02630011      -4.78179977
H        5.11960004       1.72219982      -4.82269988
H        5.48799999       0.78119997      -3.34709982
6
Properties=species:S:1:pos:R:3 energy=-2.1388292206781157 pbc="F F F"
O        0.62049997      -0.38889974      -3.06130020
H        0.08719994       0.11259991      -2.37949982
H        1.55930002      -0.43090000      -2.71989994
O        0.00000000       0.00000000       0.00000000
H        0.55859999      -0.82890000      -0.00000000
H        0.55930009       0.82890000       0.00000000
20
Properties=species:S:1:pos:R:3 energy=1.0419541907444798 pbc="F F F"
C        1.23900017       0.87559989      -0.00000000
H        1.26609986       1.38840012       0.85309981
H        1.18760013       1.49909976      -0.77500013
H        2.14870024       0.28109999      -0.08379997
C        0.00000000       0.00000000       0.00000000
H        0.00949979      -0.57919980      -0.81609974
H        0.00890023      -0.57889976       0.81669982
N       -1.23900017       0.82600011      -0.00000000
H       -1.58580016       0.90330020       0.93389987
H       -1.03020007       1.73580020      -0.35719991
H       -1.92830005       0.38919978      -0.57800016
C       -1.04880012      -3.63040013      -3.77950004
H       -0.95519979      -3.43030023      -4.76290021
H       -2.10470021      -3.56790007      -3.51650003
H       -0.65500020      -4.63219979      -3.60810007
C       -0.25089985      -2.59819977      -2.98229987
H        0.27979980      -2.04449996      -3.61679975
H       -0.88770006      -2.02450023      -2.47469986
O        0.62629975      -3.23119996      -2.07329990
H        1.18680001      -2.54240015      -1.61319989
23
Properties=species:S:1:pos:R:3 energy=-0.9424094415884227 pbc="F F F"
C       -1.07880024      -2.17179988       0.18539988
H       -0.52889992      -2.37619987       1.01960012
H       -0.64380017      -2.71529980      -0.65329996
H       -2.06100023      -2.58009979       0.42299992
N       -1.12289975      -0.72279997       0.00000000
H       -1.99160023      -0.18569992      -0.13749982
C        0.00000000       0.00000000       0.00000000
O        1.12289975      -0.51829997       0.00000000
C       -0.14780025       1.51749978      -0.02930001
H        0.02580003       1.83509977      -0.97849999
H       -1.13759976       1.85970016       0.27259982
H        0.59940008       1.99279987       0.60620001
C        6.26559997       0.79000019      -0.65370001
H        5.99330019       0.11820020       0.03780019
H        6.30079978       1.69840007      -0.23329994
H        7.27189975       0.53730008      -0.98789976
C        5.22739979       0.80659995      -1.73550016
H        5.51180026       1.42379996      -2.47260009
H        5.10950017      -0.11639994      -2.10989991
C        3.87520015       1.27729990      -1.23140013
H        3.74129980       0.90330020      -0.31699990
H        3.89330013       2.27329978      -1.19389998
H        3.06820015       0.94740024      -1.88570023
23
Properties=species:S:1:pos:R:3 energy=-0.8184537165202567 pbc="F F F"
C       -1.14189986      -2.15980026      -0.08860014
H       -0.22829975      -2.42600021      -0.37380020
H       -1.81319977      -2.43799983      -0.90109988
H       -1.46060000      -2.61399994       0.84959983
N       -1.14529982      -0.71300014      -0.00000000
H       -2.00379988      -0.13449991       0.06819983
C        0.00000000       0.00000000       0.00000000
O        1.14529982      -0.53120025      -0.00000000
C       -0.16810002       1.52569991      -0.02409979
H       -1.12960019       1.72559978       0.16779998
H        0.44729974       1.96500008       0.76100022
H        0.11390010       1.89729979      -1.00930022
C        1.78710023      -0.81560019      -3.92250013
H        2.26249980      -1.19319988      -3.12019974
H        1.97300018       0.17200006      -3.96849991
H        0.79750022      -0.94839986      -3.80009985
C        2.25209988      -1.49010005      -5.16609990
H        1.78419981      -1.09230008      -5.97639986
H        2.07820008      -2.56609988      -5.17800004
C        3.71000002      -1.17919997      -5.45330025
H        3.95830002      -1.53569978      -6.35559978
H        3.85209998      -0.18770021      -5.43840021
H        4.28909981      -1.60690004      -4.75699988
6
Properties=species:S:1:pos:R:3 energy=1.9665148011160496 pbc="F F F"
O       -2.16670020      -1.45360005       1.90750021
H       -1.80090011      -2.37189978       1.75690008
H       -3.12290014      -1.37899982       1.62399987
O        0.00000000       0.00000000       0.00000000
H        0.55859999      -0.82920005      -0.00000000
H        0.55890003       0.82920005       0.00000000
6
Properties=species:S:1:pos:R:3 energy=-1.3948829170406312 pbc="F F F"
O        1.55849990       1.81520006       1.17409976
H        1.20749984       2.25680003       1.99969981
H        2.48579988       2.11609975       0.95239991
O        0.00000000       0.00000000       0.00000000
H        0.55859999      -0.82900002      -0.00000000
H        0.55970015       0.82900002       0.00000000
23
Properties=species:S:1:pos:R:3 energy=-1.6065548314429878 pbc="F F F"
C       -1.08029992      -2.18219980      -0.00470015
H       -0.21429984      -2.45269985       0.43039993
H       -1.05590009      -2.57009993      -1.02310010
H       -1.94099977      -2.59380019       0.52230002
N       -1.11989984      -0.72159980       0.00000000
H       -1.99609982      -0.17139997       0.00359999
C        0.00000000       0.00000000       0.00000000
O        1.11989984      -0.51019986       0.00000000
C       -0.15350002       1.51290018       0.00349998
H        0.58480008       1.92210021      -0.56010021
H       -0.03010013       1.85699977       0.95060018
H       -1.12240020       1.83609992      -0.37700013
C        5.07009975       0.65639988       1.12830000
H        4.40780008       0.72209987       1.87909980
H        5.26540001       1.65540019       0.73860015
H        5.99270010       0.22209991       1.51340025
C        4.47859975      -0.25899996       0.04989982
H        3.60599977       0.11740008      -0.23380002
H        5.11210002      -0.29390026      -0.71179997
C        4.24249993      -1.68780012       0.53299998
H        5.10580016      -2.19029992       0.51389986
H        3.88869999      -1.66660023       1.46719990
H        3.52440011      -2.22380001      -0.08770001
6
Properties=species:S:1:pos:R:3 energy=-5.053645366665802 pbc="F F F"
O        1.53259986       2.38709987      -0.07720008
H        1.11020002       3.06370002      -0.68030016
H        1.62409989       2.81769983       0.82089990
O        0.00000000       0.00000000       0.00000000
H        0.55870000      -0.82890000      -0.00000000
H        0.55930009       0.82890000       0.00000000
6
Properties=species:S:1:pos:R:3 energy=9.229361012780243 pbc="F F F"
O       -1.55730026       0.86300018      -1.64219986
H       -0.98340017       1.68010006      -1.70129996
H       -2.25849975       0.95040015      -2.34930021
O        0.00000000       0.00000000       0.00000000
H        0.55839996      -0.82900002       0.00000000
H        0.55970015       0.82900002      -0.00000000
23
Properties=species:S:1:pos:R:3 energy=-1.6891311658878707 pbc="F F F"
C       -1.04110006      -2.16680022      -0.00010001
H       -0.54180020      -2.45520021       0.84060011
H       -0.52429978      -2.59740018      -0.85779996
H       -2.04950015      -2.57629977       0.05980020
N       -1.10559989      -0.69860017       0.00000000
H       -1.98459974      -0.17009978      -0.00020003
C        0.00000000       0.00000000       0.00000000
O        1.10559989      -0.54820007      -0.00000000
C       -0.06549997       1.53339997       0.00719999
H       -0.92480014       1.81180010       0.41330010
H        0.75479985       1.88649981       0.63220007