20
Properties=species:S:1:pos:R:3 energy=-1.0360579337952802 pbc="F F F"
C        1.19100009       0.96870016       0.00000000
H        1.17779977       1.46689986       0.85590021
H        1.08490006       1.58019987      -0.77110009
H        2.12389982       0.41249998      -0.09089994
C        0.00000000       0.00000000       0.00000000
H        0.02159996      -0.52710019      -0.81629977
H        0.02139993      -0.52680014       0.81649979
N       -1.19100009       0.88929976      -0.00000000
H       -1.85819995       0.55089993      -0.66309979
H       -1.60080021       0.89669978       0.91249995
H       -0.91330006       1.81739985      -0.24870006
C       -2.91639984       1.63909994      -3.06279989
H       -2.12240013       0.97590014      -3.12139992
H       -3.77920000       1.09990012      -2.67179985
H       -2.58590010       2.51129987      -2.49880018
C       -3.61079993       2.00640026      -4.46670015
H       -4.59760007       2.08660024      -4.31350017
H       -3.37450009       2.99230026      -4.86699995
O       -3.38369983       0.87310006      -5.40699989
H       -2.45969980       0.52620006      -5.27489980
23
Properties=species:S:1:pos:R:3 energy=-1.2860408301977408 pbc="F F F"
C       -0.94630008      -2.19940018      -0.01819999
H       -0.39389993      -2.46769990       0.77289983
H       -0.41809974      -2.49719995      -0.92410004
H       -1.87169979      -2.76279981       0.10169992
N       -1.12779993      -0.74520004       0.00000000
H       -1.99619984      -0.25660015       0.01180012
C        0.00000000       0.00000000       0.00000000
O        1.12779993      -0.47349983       0.00000000
C       -0.17349974       1.51680021       0.02139993
H        0.68929988       1.92989975      -0.28809995
H       -0.96460009       1.81910010      -0.66460001
H       -0.42150023       1.88960026       1.01520002
C        3.29939979      -0.49450023      -3.11840001
H        3.69729977      -0.61169975      -4.04469984
H        2.25380013      -0.79270005      -3.19570010
H        3.88240014      -1.12480002      -2.44700008
C        3.43240001       0.97960015      -2.65610022
H        2.77799989       1.13240007      -1.94969998
H        3.15480000       1.58560013      -3.51849979
C        4.80200006       1.33939990      -2.11769998
H        4.81260000       2.29820021      -1.83569986
H        5.01720002       0.76239989      -1.32970008
H        5.49069985       1.19790003      -2.82790025
23
Properties=species:S:1:pos:R:3 energy=-0.9571013434838078 pbc="F F F"
C       -1.04910017      -2.17149984       0.00520022
H       -0.44600008      -2.46099999       0.77200022
H       -0.65110017      -2.59159987      -0.91849976
H       -2.02519981      -2.60309995       0.22660003
N       -1.11949978      -0.71750026      -0.00000000
H       -1.99319993      -0.17920004      -0.00380002
C        0.00000000       0.00000000       0.00000000
O        1.11949978      -0.51550009       0.00000000
C       -0.14889988       1.51640015       0.01860005
H        0.74620019       1.96490006      -0.19480018
H       -0.92969980       1.90350016      -0.63610011
H       -0.45529984       1.87299997       1.00200022
C        3.10910025      -2.09320014       1.87700002
H        4.08129986      -1.98149982       2.08469996
H        2.84279976      -1.38050004       1.22579984
H        2.53379996      -1.96049995       2.79319998
C        2.91410004      -3.45339988       1.20160004
H        1.95549976      -3.55149981       0.97620018
H        3.48239985      -3.48199979       0.27190025
C        3.36969992      -4.57029981       2.13159988
H        2.83339999      -4.54250002       2.97250004
H        3.23829993      -5.45170002       1.68199981
H        4.33659981      -4.44850016       2.34969974
6
Properties=species:S:1:pos:R:3 energy=-3.790892838867503 pbc="F F F"
O        1.72969984       2.26050004      -1.09680020
H        2.64010002       2.65950018      -0.98579999
H        1.17759974       2.76339989      -1.76259985
O        0.00000000       0.00000000       0.00000000
H        0.55880002      -0.82940008       0.00000000
H        0.55900005       0.82940008      -0.00000000
6
Properties=species:S:1:pos:R:3 energy=0.23879344415332107 pbc="F F F"
O       -1.59280011      -3.39720020       0.48990009
H       -1.29619999      -3.11600019       1.40260007
H       -0.96490013      -4.05720007       0.07840025
O        0.00000000       0.00000000       0.00000000
H        0.59709975      -0.80269991       0.00000000
H        0.59600012       0.80269991      -0.00000000
25
Properties=species:S:1:pos:R:3 energy=0.60943275785244 pbc="F F F"
C       -1.23450005      -0.79030023       0.00000000
H       -1.04160014      -1.69259976       0.35699988
H       -1.58950016      -0.83750019      -0.92299988
H       -1.98169985      -0.31609977       0.63620012
N        0.00000000       0.00000000       0.00000000
H       -0.09359981       1.00880015       0.00020003
C        1.23450005      -0.50190024       0.00000000
N        1.42759998      -1.81900009      -0.08349993
H        0.65510022      -2.44179986      -0.16729990
H        2.36320011      -2.18410008      -0.06300013
N        2.28220001       0.30790017       0.03479975
H        2.13949997       1.30199977       0.04130016
H        3.20770025      -0.06290012       0.05299974
C        0.37069975      -5.27209992       1.46279979
H       -0.63079987      -5.24800013       1.57420006
H        0.62180015      -5.02870010       0.43039993
H        0.75610004      -4.50600002       2.13559993
N        0.87640001      -6.59309980       1.84679988
H        1.57709995      -6.71469996       2.64259985
C        0.54470009      -7.77540022       1.27810001
O       -0.19289991      -7.86139998       0.29330017
C        1.19959975      -9.05519995       1.83879978
H        1.49500023      -9.62839994       1.05499996
H        2.06320002      -8.85590017       2.47330019
H        0.46299989      -9.67990000       2.34409998
6
Properties=species:S:1:pos:R:3 energy=-1.5858744715711726 pbc="F F F"
O       -1.11080011       0.54589974       3.15689977
H       -0.11559982       0.57110021       3.25720002
H       -1.39910009       0.75600002       2.22309991
O        0.00000000       0.00000000       0.00000000
H        0.55990018      -0.82930006       0.00000000
H        0.55799990       0.82930006      -0.00000000
23
Properties=species:S:1:pos:R:3 energy=-1.290685700409176 pbc="F F F"
C       -1.09570004      -2.16220008       0.03460025
H       -0.11569983      -2.42659977       0.03670003
H       -1.54289976      -2.62990013      -0.84259987
H       -1.61699992      -2.53239976       0.91730012
N       -1.12210016      -0.70679977       0.00000000
H       -1.99359999      -0.14849982      -0.02580003
C        0.00000000       0.00000000       0.00000000
O        1.12210016      -0.52380024      -0.00000000
C       -0.15700000       1.51809987       0.03730011
H       -1.08970023       1.71939994       0.20110004
H        0.41430024       1.74920002       0.93630022
H        0.26539983       1.96470003      -0.86280015
C        2.29879977      -2.93499989       3.81789978
H        1.54419995      -2.29330003       3.67669996
H        1.93950009      -3.86679999       3.74619998
H        2.69920012      -2.79299995       4.82169974
C        3.32320006      -2.73079993       2.69500004
H        4.11109994      -3.30079999       2.89089985
H        2.90300002      -3.05209993       1.74200004
C        3.74139981      -1.27339986       2.61429998
H        4.15220008      -0.99420015       3.48169975
H        4.40780008      -1.15639984       1.87949986
H        2.94159979      -0.70419992       2.42870007
6
Properties=species:S:1:pos:R:3 energy=1.2829496449244644 pbc="F F F"
O        1.00460007      -2.98850024       2.45229979
H        1.18720007      -2.78650007       1.48969999
H        1.61999982      -3.73260012       2.71269996
O        0.00000000       0.00000000       0.00000000
H        0.59640018      -0.80309997      -0.00000000
H        0.59590010       0.80309997       0.00000000
23
Properties=species:S:1:pos:R:3 energy=-1.3147457134859888 pbc="F F F"
C       -1.21010021      -2.15329985      -0.05439995
H       -0.29069980      -2.52589987       0.05359983
H       -1.57359998      -2.44720011      -1.03909977
H       -1.90429975      -2.53399999       0.69470013
N       -1.13290014      -0.70540010       0.00000000
H       -2.00009987      -0.09359981       0.04510019
C        0.00000000       0.00000000       0.00000000
O        1.13290014      -0.49159981      -0.00000000
C       -0.16679983       1.49259988       0.09829996
H       -1.10330008       1.68830019       0.29119987
H        0.42629987       1.72539975       0.98280008
H        0.19219981       2.03190025      -0.77830008
C        4.75880014       0.15209982       0.11040012
H        5.66740006      -0.20850005      -0.00639987
H        4.04390026      -0.67049980       0.12759997
H        4.69230003       0.60569994       1.09930003
C        4.49640022       1.14989996      -1.02650007
H        3.52609983       1.37969992      -1.01409986
H        5.04239997       1.96389992      -0.85120006
C        4.83120005       0.67610009      -2.45359998
H        5.25910015       1.45030010      -2.95249978
H        5.48940019      -0.19160025      -2.49880018
H        3.94530026       0.44310019      -3.04439987
25
Properties=species:S:1:pos:R:3 energy=-7.530116296860085 pbc="F F F"
C       -1.21680013      -0.80740006      -0.00000000
H       -1.10979997      -1.56099974       0.64249998
H       -1.37639997      -1.15959978      -0.91820025
H       -2.08759985      -0.22330008       0.29789978
N        0.00000000       0.00000000       0.00000000
H       -0.08999981       0.99450019      -0.00000000
C        1.21680013      -0.52839985      -0.00000000
N        1.43809992      -1.84349993       0.04050005
H        0.64800025      -2.46329980       0.05270023
H        2.36290006      -2.19779995       0.05739985
N        2.25400016       0.28180009      -0.01210017
H        2.13690012       1.27490008      -0.04150019
H        3.18910020      -0.09719980       0.00709997
C        5.54790020       2.30160017      -1.60529981
H        5.17299985       1.36610007      -1.62429992
H        5.73640000       2.54459994      -0.55960014
H        6.49559996       2.23960019      -2.14020007
N        4.52150015       3.16270008      -2.17549989
H        4.57879999       4.20300003      -2.16819989
C        3.42980016       2.67269998      -2.75030011
O        3.25559979       1.48079976      -2.95319988
C        2.41189976       3.66780026      -3.24270003
H        1.50130008       3.22580023      -3.15870003
H        2.38019992       4.57459991      -2.63859980
H        2.66009974       3.89610001      -4.27929998
25
Properties=species:S:1:pos:R:3 energy=-10.98331133513478 pbc="F F F"
C       -1.23150014      -0.79250002      -0.00000000
H       -1.98189988      -0.23760004       0.34879975
H       -1.10599994      -1.59930000       0.57179979
H       -1.50429999      -1.13220004      -0.99909980
N        0.00000000       0.00000000       0.00000000
H       -0.09029986       1.00550020      -0.00010001
C        1.23150014      -0.50939974       0.00000000
N        1.42200023      -1.82189998       0.00629985
H        0.64630000      -2.44979996      -0.00979983
H        2.35690025      -2.19029992       0.02539998
N        2.27930012       0.30149977      -0.01870006
H        2.14120021       1.29430025      -0.05290026
H        3.20549994      -0.07149978      -0.00010001
C       -6.45389974       0.26050018       0.46540024
H       -5.84620004       0.87239996      -0.02779980
H       -7.46780009       0.65380003       0.39299980
H       -6.44840000      -0.75320015       0.06469985
N       -6.09239974       0.28850001       1.87090020
H       -6.76179991       0.07639996       2.64040006
C       -4.86589979       0.59109994       2.27369984
O       -3.93720014       0.82890000       1.49770009
C       -4.65479989       0.60499984       3.77759977
H       -5.25160012      -0.08629981       4.18739989
H       -3.61829996       0.34589986       3.99359985
H       -4.91429993       1.59469986       4.15340025
25
Properties=species:S:1:pos:R:3 energy=-0.3213488248573574 pbc="F F F"
C       -1.21970002      -0.80279993      -0.00000000
H       -1.96739990      -0.26760015       0.37889988
H       -1.07400007      -1.62550009       0.53999994
H       -1.49909976      -1.10700009      -1.00880015
N        0.00000000       0.00000000       0.00000000
H       -0.08780002       0.99609989       0.00040006
C        1.21970002      -0.52829983      -0.00000000
N        1.35280026      -1.83999995       0.01490004
H        0.57110021      -2.45420006       0.00639987
H        2.28509990      -2.24469987       0.03539984
N        2.30379996       0.23480016      -0.01299977
H        2.18659991       1.23629978      -0.04249981
H        3.20929996      -0.16570020       0.00510021
C        3.61150004      -0.53070018      -3.51020017
H        4.01660001      -0.61010005      -2.59750019
H        2.68299989       0.02909998      -3.39799979
H        4.36060012      -0.03290001      -4.12610000
N        3.32219991      -1.88979976      -3.97750016
H        2.39809987      -2.19029992      -4.32740007
C        4.26290025      -2.83989987      -3.97660003
O        5.38489986      -2.63519984      -3.49590022
C        3.91120008      -4.23829986      -4.56530015
H        4.31909992      -4.92769975      -3.94460015
H        2.83790011      -4.41639974      -4.63229980
H        4.42560001      -4.43959992      -5.50499981
25
Properties=species:S:1:pos:R:3 energy=-12.048476167240286 pbc="F F F"
C       -1.22690000      -0.78980016      -0.00000000
H       -1.12439997      -1.55849990       0.62210020
H       -1.41229988      -1.11180026      -0.92209975
H       -2.08119998      -0.19850019       0.32930010
N        0.00000000       0.00000000       0.00000000
H       -0.08599976       1.00470008       0.00050007
C        1.22690000      -0.51630021       0.00000000
N        1.41010009      -1.83400014      -0.01190014
H        0.62980025      -2.45410005      -0.04170022
H        2.34160015      -2.20620011       0.00760004
N        2.27689977       0.29039975       0.00299991
H        2.14569981       1.28399981      -0.01480003
H        3.20310012      -0.08790004       0.02149994
C       -3.10619983      -1.84480012      -5.22799988
H       -3.77489990      -1.38299987      -4.64460000
H       -3.46749980      -2.73670026      -5.50430023
H       -2.84610024      -1.23590025      -6.09379994
N       -1.82179996      -2.00429995      -4.51730007
H       -1.08039994      -1.27500009      -4.84369975
C       -1.47270017      -2.82939993      -3.50940006
O       -0.37280005      -2.77510000      -2.96429991
C       -2.49570026      -3.85230001      -3.04170001
H       -3.11689980      -4.03960016      -3.79359997
H       -1.96029993      -4.77229998      -2.80679983
H       -3.01720016      -3.45560020      -2.17060024
6
Properties=species:S:1:pos:R:3 energy=-4.858213463752486 pbc="F F F"
O       -1.77409993       0.10640007       2.56490023
H       -1.24769984       0.16130009       1.71620000
H       -2.68209975       0.47610021       2.36690011
O        0.00000000       0.00000000       0.00000000
H        0.55839996      -0.82940008       0.00000000
H        0.55870000       0.82940008      -0.00000000
23
Properties=species:S:1:pos:R:3 energy=-1.266737651722089 pbc="F F F"
C       -1.04500010      -2.16829991      -0.20220020
H       -0.44640013      -2.58200006       0.49209988
H       -0.64270001      -2.40400020      -1.18740010
H       -2.05049977      -2.56249988      -0.05490002
N       -1.08629974      -0.72999996       0.00000000
H       -1.97489992      -0.20319981       0.15480021
C        0.00000000       0.00000000       0.00000000
O        1.08629974      -0.55789989       0.00000000
C       -0.11330002       1.51729975       0.03680004
H        0.73249979       1.90839981      -0.36330026
H       -0.96870016       1.88719992      -0.52859988
H       -0.02789981       1.85439992       1.06979999
C        3.93229996      -3.11830000      -0.72139977
H        4.87270025      -2.81349975      -0.56980003
H        3.40310000      -2.34029996      -1.27170015
H        3.96889997      -4.02619981      -1.32360026
C        3.21549980      -3.44999991       0.62100004
H        2.23480002      -3.55899984       0.41589995
H        3.29279989      -2.59199993       1.28889999
C        3.68060000      -4.74860025       1.27689984
H        3.18279982      -4.88469987       2.13270004
H        3.50190003      -5.51370001       0.66019990
H        4.66040017      -4.69199999       1.46550019
23
Properties=species:S:1:pos:R:3 energy=-1.4038116081627166 pbc="F F F"
C       -1.21010021      -2.15329985      -0.05439995
H       -0.29069980      -2.52589987       0.05359983
H       -1.57359998      -2.44720011      -1.03909977
H       -1.90429975      -2.53399999       0.69470013
N       -1.13290014      -0.70540010       0.00000000
H       -2.00009987      -0.09359981       0.04510019
C        0.00000000       0.00000000       0.00000000
O        1.13290014      -0.49159981      -0.00000000
C       -0.16679983       1.49259988       0.09829996
H       -1.10330008       1.68830019       0.29119987
H        0.42629987       1.72539975       0.98280008
H        0.19219981       2.03190025      -0.77830008
C        3.04889999      -3.11389989       0.92329993
H        2.21169985      -2.74380023       0.51940013
H        3.24849982      -4.04069979       0.38539976
H        3.84389985      -2.39200005       0.73669987
C        3.01529989      -3.31889997       2.45209976
H        3.92600010      -3.56739999       2.74889991
H        2.34699987      -4.14540015       2.69349982
C        2.63509982      -1.98539986       3.16260007
H        2.66909999      -2.12970013       4.14379992
H        3.28670006      -1.28719975       2.89240007
H        1.71790025      -1.72860021       2.88289975
25
Properties=species:S:1:pos:R:3 energy=-3.5734882789738798 pbc="F F F"
C       -1.23460006      -0.79109982       0.00000000
H       -1.91209982      -0.34380008       0.58289981
H       -1.03959985      -1.70600011       0.35440003
H       -1.67189993      -0.90529996      -0.99199983
N        0.00000000       0.00000000       0.00000000
H       -0.09130000       1.00719991       0.00040006
C        1.23460006      -0.50540022       0.00000000
N        1.42470009      -1.82139990       0.00209978
H        0.65010002      -2.44869980      -0.01709983
H        2.36040023      -2.18760006       0.02179998
N        2.28390026       0.31009996       0.00329995
H        2.13949997       1.30189976      -0.01439997
H        3.20889990      -0.06109986       0.02139993
C        1.22169978      -5.14109999      -1.07100016
H        0.69239980      -4.30970015      -0.83889987
H        1.68450017      -4.97050013      -2.04309975
H        1.99999986      -5.30749976      -0.32630019
N        0.27120014      -6.25670026      -1.09129993
H        0.47829999      -7.19370006      -0.72090023
C       -0.94650011      -6.10009979      -1.60840026
O       -1.32250010      -5.02490008      -2.09119985
C       -1.89829994      -7.30690006      -1.58940015
H       -2.75690001      -7.05530011      -2.10860025
H       -1.51700024      -8.25370022      -1.97200003
H       -2.28340018      -7.45099978      -0.57989990
