23
Properties=species:S:1:pos:R:3 energy=-1.060919089640603 pbc="F F F"
C       -1.12590018      -2.17089975      -0.00470015
H       -0.29990007      -2.48780017       0.46550026
H       -1.08910014      -2.53619978      -1.03100019
H       -2.02929987      -2.56939983       0.45710010
N       -1.12470001      -0.71189998       0.00000000
H       -1.99699995      -0.14030022       0.00359999
C        0.00000000       0.00000000       0.00000000
O        1.12470001      -0.50870017       0.00000000
C       -0.16309982       1.51519998      -0.00959980
H       -1.02350016       1.74260013       0.42890024
H        0.65480017       1.93200006       0.57820018
H       -0.12629978       1.86159991      -1.04240025
C        4.23240006       0.51049990      -2.36390021
H        3.38220014       1.01329974      -2.20710024
H        5.00750020       1.13869992      -2.29850025
H        4.21299989       0.10089981      -3.27580007
C        4.37520012      -0.58389995      -1.31679980
H        3.60440007      -1.20029985      -1.42810006
H        4.31079978      -0.15989989      -0.31480011
C        5.70430011      -1.31999974      -1.49480020
H        5.52689980      -2.22579977      -1.87519976
H        6.28480010      -0.79819979      -2.11769998
H        6.15050022      -1.40650010      -0.60599998
23
Properties=species:S:1:pos:R:3 energy=-1.4930651678962028 pbc="F F F"
C       -1.12590018      -2.17089975      -0.00470015
H       -0.29990007      -2.48780017       0.46550026
H       -1.08910014      -2.53619978      -1.03100019
H       -2.02929987      -2.56939983       0.45710010
N       -1.12470001      -0.71189998       0.00000000
H       -1.99699995      -0.14030022       0.00359999
C        0.00000000       0.00000000       0.00000000
O        1.12470001      -0.50870017       0.00000000
C       -0.16309982       1.51519998      -0.00959980
H       -1.02350016       1.74260013       0.42890024
H        0.65480017       1.93200006       0.57820018
H       -0.12629978       1.86159991      -1.04240025
C        3.33579977      -3.03180016       2.16509997
H        4.26240017      -3.37349994       2.26850014
H        3.35899996      -2.16009978       1.51119993
H        2.74899992      -3.80180010       1.66429989
C        2.70039976      -2.71879978       3.55690006
H        3.16139989      -1.91800015       3.92290018
H        2.82360015      -3.58270010       4.21020002
C        1.20689975      -2.34920019       3.42019983
H        1.13399977      -1.38259981       3.19009982
H        0.80169977      -2.90400016       2.69850001
H        0.75000021      -2.52949986       4.28639995
23
Properties=species:S:1:pos:R:3 energy=-1.2678346695221618 pbc="F F F"
C       -1.06889986      -2.18199978       0.00860019
H       -0.48380026      -2.48410016       0.77959974
H       -0.66029991      -2.59360016      -0.91430021
H       -2.06139976      -2.60239985       0.17079988
N       -1.11750002      -0.72320003      -0.00000000
H       -1.99470015      -0.17680022      -0.00689994
C        0.00000000       0.00000000       0.00000000
O        1.11750002      -0.50800007       0.00000000
C       -0.15870024       1.51869996      -0.00460014
H        0.60300007       1.90360018      -0.54160017
H       -1.09340024       1.82000023      -0.47749988
H       -0.11599988       1.89630018       1.01709976
C        1.59610006      -4.42620010       1.99589979
H        0.77850011      -3.97579991       1.64969989
H        1.63779976      -4.34890001       2.98720005
H        1.63660011      -5.46839979       1.67919993
C        2.83510023      -3.83150017       1.36479988
H        2.75539979      -2.84439999       1.31429997
H        3.64170018      -4.09490024       1.87800017
C        2.83420010      -4.45079996      -0.00919975
H        2.21999999      -3.96819987      -0.62679982
H        3.75269986      -4.48180022      -0.39580021
H        2.46610020      -5.45729977       0.18990000
23
Properties=species:S:1:pos:R:3 energy=-2.00432507494857 pbc="F F F"
C       -1.05059985      -2.17959996      -0.04520020
H       -0.55640020      -2.52370008       0.74620019
H       -0.52539994      -2.46779992      -0.95579987
H       -2.04870004      -2.61709986      -0.06559998
N       -1.11530023      -0.72279997      -0.00000000
H       -1.99269986      -0.18479979       0.03340008
C        0.00000000       0.00000000       0.00000000
O        1.11530023      -0.51069993      -0.00000000
C       -0.14670009       1.50799999       0.02179998
H        0.72189984       1.93340026      -0.31279982
H       -0.25360024       1.81930013       0.99030011
H       -0.98000021       1.88979976      -0.56799977
C        3.66690013      -3.03810002       0.72430019
H        2.71670001      -3.27660018       0.61909976
H        4.16939992      -3.72779996       1.21380022
H        4.10379994      -2.94050016      -0.26949990
C        3.73290017      -1.75179987       1.53800011
H        3.37560024      -1.00180019       0.99070017
H        4.77179991      -1.51799986       1.77069997
C        2.89439983      -1.91189979       2.78949997
H        3.24710014      -2.67290001       3.33729999
H        2.93220002      -1.07080014       3.33090012
H        1.94380018      -2.09970002       2.53679986
23
Properties=species:S:1:pos:R:3 energy=-1.3098711734291435 pbc="F F F"
C       -1.06350014      -2.17529986      -0.00959980
H       -0.51950014      -2.48989995       0.77259978
H       -0.58480008      -2.52579986      -0.92390001
H       -2.06899980      -2.58320024       0.09419989
N       -1.11810011      -0.72100024       0.00000000
H       -1.99349997      -0.17590009       0.00740001
C        0.00000000       0.00000000       0.00000000
O        1.11810011      -0.51920010      -0.00000000
C       -0.16059999       1.53209978       0.00949979
H        0.64390018       1.93799987      -0.43759992
H       -1.05459990       1.84110011      -0.53199984
H       -0.16299981       1.91360004       1.03060013
C        4.06400000      -2.98559982      -0.20230021
H        4.98619976      -2.66479989       0.01009988
H        3.61089995      -2.32010021      -0.93709981
H        4.13199980      -3.98470015      -0.63280016
C        3.26150011      -2.97519990       1.10559989
H        3.22430001      -2.02889981       1.43849998
H        2.32750022      -3.28080026       0.89799996
C        3.81320016      -3.85169992       2.22150021
H        4.20949991      -4.67359997       1.83330004
H        4.48890019      -3.34480001       2.74079979
H        3.01219997      -4.14669981       2.89940003
23
Properties=species:S:1:pos:R:3 energy=-0.8438408490421804 pbc="F F F"
C       -1.12590018      -2.17089975      -0.00470015
H       -0.29990007      -2.48780017       0.46550026
H       -1.08910014      -2.53619978      -1.03100019
H       -2.02929987      -2.56939983       0.45710010
N       -1.12470001      -0.71189998       0.00000000
H       -1.99699995      -0.14030022       0.00359999
C        0.00000000       0.00000000       0.00000000
O        1.12470001      -0.50870017       0.00000000
C       -0.16309982       1.51519998      -0.00959980
H       -1.02350016       1.74260013       0.42890024
H        0.65480017       1.93200006       0.57820018
H       -0.12629978       1.86159991      -1.04240025
C        3.33579977      -3.03180016       2.16509997
H        4.26240017      -3.37349994       2.26850014
H        3.35899996      -2.16009978       1.51119993
H        2.74899992      -3.80180010       1.66429989
C        2.70039976      -2.71879978       3.55690006
H        3.16139989      -1.91800015       3.92290018
H        1.64649996      -2.45800009       3.46039983
C        2.87339996      -3.93139983       4.47380012
H        3.69759981      -3.80910010       5.02480006
H        2.07520017      -4.00590004       5.06910013
H        2.95749998      -4.75399998       3.91389994
23
Properties=species:S:1:pos:R:3 energy=-1.543527154141854 pbc="F F F"
C       -1.09570004      -2.16159999      -0.29789978
H       -0.72889980      -2.66200002       0.52580000
H       -2.07289984      -2.47859990      -0.38169975
H       -0.53790017      -2.46099999      -1.18529980
N       -1.10129979      -0.72949989      -0.00000000
H       -1.97419982      -0.20359987       0.22899985
C        0.00000000       0.00000000       0.00000000
O        1.10129979      -0.50239978       0.00000000
C       -0.17990014       1.48839980       0.08760000
H        0.66930016       1.93680022      -0.20920015
H       -0.99460020       1.79100026      -0.57030010
H       -0.39870010       1.75199990       1.12240020
C        3.94329997      -2.85640014      -0.14529989
H        4.84109990      -2.51789977       0.15629990
H        3.47630002      -2.10740008      -0.78479996
H        4.10190020      -3.78790020      -0.68879981
C        3.03679983      -3.11860004       1.05270016
H        2.05940000      -2.91510018       0.73870016
H        3.02140024      -4.15389979       1.19659985
C        3.16360021      -2.50359982       2.44959993
H        2.94390012      -3.24459978       3.13830025
H        4.10870012      -2.03070007       2.71629995
H        2.26629982      -2.03939975       2.85899999
23
Properties=species:S:1:pos:R:3 energy=-1.6567703010855972 pbc="F F F"
C       -1.09409981      -2.17539988      -0.05309976
H       -0.49810022      -2.50290024       0.69100013
H       -0.67560001      -2.53220026      -0.99420015
H       -2.09280008      -2.58809989       0.08969977
N       -1.12049993      -0.71710021      -0.00000000
H       -1.99480016      -0.16110006       0.04020000
C        0.00000000       0.00000000       0.00000000
O        1.12049993      -0.50969978       0.00000000
C       -0.16810002       1.51729975       0.00150022
H        0.66820000       1.93220009      -0.37750020
H       -1.01789988       1.81779991      -0.61150025
H       -0.28399988       1.88850010       1.01980015
C        3.06050009      -1.79340008       4.27409975
H        3.38970017      -1.46999978       3.39459982
H        3.81899994      -1.56690006       5.02349988
H        2.88449998      -2.86770019       4.21989983
C        1.76170025      -1.04880012       4.59579981
H        1.45400011      -1.33169985       5.50340010
H        1.96230022      -0.06940000       4.61930004
C        0.65189975      -1.29370016       3.59999996
H        0.43590020      -2.26880018       3.57620021
H       -0.15959985      -0.77790002       3.87329988
H        0.94690017      -0.99559982       2.69339980
23
Properties=species:S:1:pos:R:3 energy=-0.9571013434838078 pbc="F F F"
C       -1.04910017      -2.17149984       0.00520022
H       -0.44600008      -2.46099999       0.77200022
H       -0.65110017      -2.59159987      -0.91849976
H       -2.02519981      -2.60309995       0.22660003
N       -1.11949978      -0.71750026      -0.00000000
H       -1.99319993      -0.17920004      -0.00380002
C        0.00000000       0.00000000       0.00000000
O        1.11949978      -0.51550009       0.00000000
C       -0.14889988       1.51640015       0.01860005
H        0.74620019       1.96490006      -0.19480018
H       -0.92969980       1.90350016      -0.63610011
H       -0.45529984       1.87299997       1.00200022
C        3.10910025      -2.09320014       1.87700002
H        4.08129986      -1.98149982       2.08469996
H        2.84279976      -1.38050004       1.22579984
H        2.53379996      -1.96049995       2.79319998
C        2.91410004      -3.45339988       1.20160004
H        1.95549976      -3.55149981       0.97620018
H        3.48239985      -3.48199979       0.27190025
C        3.36969992      -4.57029981       2.13159988
H        2.83339999      -4.54250002       2.97250004
H        3.23829993      -5.45170002       1.68199981
H        4.33659981      -4.44850016       2.34969974
23
Properties=species:S:1:pos:R:3 energy=-1.0021859284815662 pbc="F F F"
C       -1.12590018      -2.17089975      -0.00470015
H       -0.29990007      -2.48780017       0.46550026
H       -1.08910014      -2.53619978      -1.03100019
H       -2.02929987      -2.56939983       0.45710010
N       -1.12470001      -0.71189998       0.00000000
H       -1.99699995      -0.14030022       0.00359999
C        0.00000000       0.00000000       0.00000000
O        1.12470001      -0.50870017       0.00000000
C       -0.16309982       1.51519998      -0.00959980
H       -1.02350016       1.74260013       0.42890024
H        0.65480017       1.93200006       0.57820018
H       -0.12629978       1.86159991      -1.04240025
C        1.20689975      -2.34920019       3.42019983
H        1.13399977      -1.38259981       3.19009982
H        0.80169977      -2.90400016       2.69850001
H        0.75000021      -2.52949986       4.28639995
C        2.70039976      -2.71879978       3.55690006
H        3.16139989      -1.91800015       3.92290018
H        3.14390000      -2.93730023       2.58540003
C        2.87339996      -3.93139983       4.47380012
H        3.69759981      -3.80910010       5.02480006
H        2.07520017      -4.00590004       5.06910013
H        2.95749998      -4.75399998       3.91389994
23
Properties=species:S:1:pos:R:3 energy=-1.025258652932648 pbc="F F F"
C       -1.26130023      -2.05449982      -0.13359978
H       -0.49539983      -2.48700006       0.37599999
H       -1.16250020      -2.39220008      -1.16530007
H       -2.16340025      -2.40549989       0.36739980
N       -1.14660001      -0.64700010      -0.00000000
H       -1.98710011      -0.00589980       0.11120024
C        0.00000000       0.00000000       0.00000000
O        1.14660001      -0.51570012       0.00000000
C       -0.18370016       1.48449976      -0.08530019
H       -1.08779995       1.68810017       0.31729995
H        0.55729980       2.00270025       0.52340018
H       -0.19420010       1.75189989      -1.14189986
C        1.99229980      -1.58349982       3.60100010
H        1.40970004      -1.12150007       2.90639998
H        1.39449995      -1.78640012       4.39780022
H        2.30999980      -2.53699989       3.17919983
C        3.02020007      -0.57010007       4.06249978
H        3.50590008      -0.21300018       3.28370016
H        2.46970019       0.23679992       4.54630004
C        3.87100007      -1.27709987       5.12849975
H        4.30880002      -2.07560023       4.72089994
H        4.56699987      -0.64469977       5.46489982
H        3.28089975      -1.56189987       5.88179991
23
Properties=species:S:1:pos:R:3 energy=-1.2780510097938427 pbc="F F F"
C       -1.02380020      -2.17519985       0.01120004
H       -0.05980020      -2.41100015      -0.23289989
H       -1.65979977      -2.68540023      -0.71220003
H       -1.19830009      -2.54280020       1.02240000
N       -1.11639986      -0.72050017       0.00000000
H       -1.99100014      -0.19410008      -0.00840016
C        0.00000000       0.00000000       0.00000000
O        1.11639986      -0.52049976      -0.00000000
C       -0.13180005       1.50810001       0.00559975
H        0.62279977       1.90990003      -0.57390009
H        0.06570000       1.85580013       0.95830024
H       -1.08639975       1.91579983      -0.32709978
C        2.98989991      -0.27440008      -3.26090003
H        3.87960026       0.07390013      -3.55000012
H        2.89029976      -0.16880012      -2.27389986
H        2.18249985       0.23070010      -3.79110013
C        2.83390006      -1.72529974      -3.65900004
H        3.69389981      -2.20799984      -3.53339983
H        2.11490011      -2.15080002      -3.12089985
C        2.45949977      -1.63489986      -5.10419993
H        3.24839980      -1.44519989      -5.67830005
H        1.99490018      -2.45830013      -5.41699975
H        1.77580018      -0.78600014      -5.09860018
23
Properties=species:S:1:pos:R:3 energy=-1.2437739874867622 pbc="F F F"
C       -1.11730000      -2.16429986       0.05140004
H       -0.43590020      -2.45430008       0.73080007
H       -0.83030021      -2.57709988      -0.91579990
H       -2.10299997      -2.51300012       0.35900017
N       -1.12299976      -0.70480001       0.00000000
H       -1.99500019      -0.13890002      -0.03919986
C        0.00000000       0.00000000       0.00000000
O        1.12299976      -0.52370022      -0.00000000
C       -0.17600011       1.51819989      -0.01029991
H        0.67409980       1.97290016      -0.31500014
H       -1.01990017       1.82590003      -0.62779996
H       -0.44449986       1.89590012       0.97620018
C        2.63939992      -1.17819982      -3.67700000
H        2.87579978      -1.29909988      -4.65759977
H        1.56489977      -1.32169998      -3.56329993
H        3.23660021      -1.88019996      -3.09509981
C        3.01869985       0.24029990      -3.29110017
H        2.58449990       0.44970008      -2.41900026
H        4.00980008       0.28099998      -3.19859999
C        2.60790011       1.32580005      -4.27509990
H        1.65090007       1.20399986      -4.51110023
H        2.75219986       2.29490026      -3.79780005
H        3.19799991       1.26249987      -5.18940011
23
Properties=species:S:1:pos:R:3 energy=-1.2218250240106796 pbc="F F F"
C       -1.09379976      -2.15540015      -0.01620023
H       -0.49889981      -2.47179997       0.72289999
H       -0.65979984      -2.49470011      -0.95680002
H       -2.10480023      -2.54759984       0.09419989
N       -1.12059994      -0.70709982       0.00000000
H       -1.99329995      -0.14569995       0.01270025
C        0.00000000       0.00000000       0.00000000
O        1.12059994      -0.51210013       0.00000000
C       -0.16920018       1.50729989      -0.01329981
H       -0.87589994       1.73230022       0.66019990
H        0.75610004       1.97859993       0.31820008
H       -0.41819975       1.80900022      -1.03060013
C        2.21450025      -3.11180011       3.24790026
H        2.49900021      -3.96499994       3.68210021
H        2.31310025      -2.35709975       3.89429974
H        1.26140024      -3.18329989       2.95739996
C        3.09780020      -2.84840004       2.02450023
H        2.81170002      -1.99900024       1.59000024
H        3.00019982      -3.66549992       1.30979985
C        4.55959985      -2.72019998       2.43980009
H        5.11990009      -2.53080005       1.63330016
H        4.65479989      -1.97119992       3.09619997
H        4.86140020      -3.57500004       2.86239995
23
Properties=species:S:1:pos:R:3 energy=-0.9604367586466036 pbc="F F F"
C       -1.11730000      -2.16429986       0.05140004
H       -0.43590020      -2.45430008       0.73080007
H       -0.83030021      -2.57709988      -0.91579990
H       -2.10299997      -2.51300012       0.35900017
N       -1.12299976      -0.70480001       0.00000000
H       -1.99500019      -0.13890002      -0.03919986
C        0.00000000       0.00000000       0.00000000
O        1.12299976      -0.52370022      -0.00000000
C       -0.17600011       1.51819989      -0.01029991
H        0.67409980       1.97290016      -0.31500014
H       -1.01990017       1.82590003      -0.62779996
H       -0.44449986       1.89590012       0.97620018
C        3.01869985       0.24029990      -3.29110017
H        2.58449990       0.44970008      -2.41900026
H        4.00980008       0.28099998      -3.19859999
H        2.74640008      -0.77810005      -3.56820011
C        2.60790011       1.32580005      -4.27509990
H        1.65090007       1.20399986      -4.51110023
H        3.19799991       1.26249987      -5.18940011
C        2.80689985       2.66220005      -3.61689976
H        3.77049979       2.78069976      -3.36400015
H        2.54260018       3.39859987      -4.24569987
H        2.24340021       2.72460009      -2.78909992
23
Properties=species:S:1:pos:R:3 energy=-0.591115050095945 pbc="F F F"
C       -1.11219979      -2.17079974      -0.00060009
H       -0.57299996      -2.49570026       0.78280020
H       -0.65659990      -2.54980016      -0.91529983
H       -2.13610000      -2.53399999       0.08770001
N       -1.11599981      -0.71230004      -0.00000000
H       -1.99329995      -0.14610001       0.00030004
C        0.00000000       0.00000000       0.00000000
O        1.11599981      -0.51439993       0.00000000
C       -0.19870022       1.51399981      -0.04629983
H        0.65689995       1.93419985      -0.39520012
H       -1.02819978       1.80520020      -0.69090011
H       -0.35359991       1.90780025       0.95830024
C       -1.49559979      -8.02899993       2.39849993
H       -0.73309988      -8.06529990       3.04489994
H       -1.56300003      -9.00399994       1.91589984
H       -2.41229981      -7.82940011       2.95359994
C       -1.20419989      -6.88410017       1.37660000
H       -0.39600024      -7.14760026       0.85160012
H       -2.01099986      -6.74649981       0.65659990
C       -0.89890009      -5.55249981       2.07389998
H       -0.83879985      -5.70850019       3.05790024
H       -0.03080023      -5.19899991       1.73069999
H       -1.63270007      -4.90699993       1.87460021
23
Properties=species:S:1:pos:R:3 energy=-1.3592517855912565 pbc="F F F"
C       -1.07810013      -2.18450014       0.02950004
H       -0.62080001      -2.47809982       0.88000000
H       -0.52149991      -2.59250000      -0.81419999
H       -2.09000020      -2.58809989       0.06829984
N       -1.12630024      -0.71940001       0.00000000
H       -1.99820013      -0.17320023      -0.02159996
C        0.00000000       0.00000000       0.00000000
O        1.12630024      -0.54279982      -0.00000000
C       -0.14000018       1.56060021      -0.02970007
H        0.74429991       1.90549992      -0.34199982
H       -0.88929976       1.85799992      -0.76340004
H       -0.40170001       1.92960024       0.96190023
C        3.30960020      -3.81380025       1.24409985
H        2.34880014      -4.06989979       1.08220020
H        3.74340010      -4.53739981       1.79199988
H        3.80990021      -3.79020000       0.27599978
C        3.30850005      -2.55040025       2.07759999
H        2.77550006      -1.84589975       1.61390000
H        2.86459974      -2.74839984       3.05330010
C        4.70100024      -1.98169985       2.21249996
H        5.06789996      -1.76189975       1.30579980
H        4.67550024      -1.14710008       2.76769999
H        5.30169998      -2.65200015       2.65540012
23
Properties=species:S:1:pos:R:3 energy=-0.8097070190875771 pbc="F F F"
C       -1.11730000      -2.16429986       0.05140004
H       -0.43590020      -2.45430008       0.73080007
H       -0.83030021      -2.57709988      -0.91579990
H       -2.10299997      -2.51300012       0.35900017
N       -1.12299976      -0.70480001       0.00000000
H       -1.99500019      -0.13890002      -0.03919986
C        0.00000000       0.00000000       0.00000000
O        1.12299976      -0.52370022      -0.00000000
C       -0.17600011       1.51819989      -0.01029991
H        0.67409980       1.97290016      -0.31500014
H       -1.01990017       1.82590003      -0.62779996
H       -0.44449986       1.89590012       0.97620018
C        3.01869985       0.24029990      -3.29110017
H        2.58449990       0.44970008      -2.41900026
H        4.00980008       0.28099998      -3.19859999
H        2.74640008      -0.77810005      -3.56820011
C        2.60790011       1.32580005      -4.27509990
H        1.65090007       1.20399986      -4.51110023
H        2.75219986       2.29490026      -3.79780005
C        3.43209997       1.23739994      -5.55209975
H        3.29040007       0.34420014      -5.97999985
H        3.14699992       1.95860021      -6.18449985
H        4.40170025       1.35150007      -5.33319978
23
Properties=species:S:1:pos:R:3 energy=-0.761015741528644 pbc="F F F"
C       -1.11219979      -2.17079974      -0.00060009
H       -0.57299996      -2.49570026       0.78280020
H       -0.65659990      -2.54980016      -0.91529983
H       -2.13610000      -2.53399999       0.08770001
N       -1.11599981      -0.71230004      -0.00000000
H       -1.99329995      -0.14610001       0.00030004
C        0.00000000       0.00000000       0.00000000
O        1.11599981      -0.51439993       0.00000000
C       -0.19870022       1.51399981      -0.04629983
H        0.65689995       1.93419985      -0.39520012
H       -1.02819978       1.80520020      -0.69090011
H       -0.35359991       1.90780025       0.95830024
C       -2.35099993      -6.68849987       0.35329987
H       -2.13219997      -5.91039982      -0.22790022
H       -2.43350024      -7.51429995      -0.19649990
H       -3.19749983      -6.52029984       0.84929979
C       -1.20419989      -6.88410017       1.37660000
H       -0.39600024      -7.14760026       0.85160012
H       -1.40760026      -7.68300006       2.08970016
C       -0.89890009      -5.55249981       2.07389998
H       -0.83879985      -5.70850019       3.05790024
H       -0.03080023      -5.19899991       1.73069999
H       -1.63270007      -4.90699993       1.87460021
23
Properties=species:S:1:pos:R:3 energy=-1.4383647873591345 pbc="F F F"
C       -1.10889984      -2.20829988       0.00430009
H       -0.54399999      -2.51119986       0.78799990
H       -0.69850016      -2.62270014      -0.91650000
H       -2.10199982      -2.61399994       0.19770008
N       -1.12069996      -0.72509978       0.00000000
H       -1.99969981      -0.17149998      -0.00269986
C        0.00000000       0.00000000       0.00000000
O        1.12069996      -0.52740023      -0.00000000
C       -0.14469980       1.52660004      -0.11410013
H        0.72149979       1.92240025      -0.42030006
H       -0.92979981       1.77970021      -0.82660020
H       -0.33069977       1.96769994       0.86509996
C        3.17070018      -1.29239997      -2.89560000
H        3.66330013      -1.37229991      -3.78139979
H        2.10149975      -1.41239990      -3.07090001
H        3.57679977      -2.03770003      -2.21169985
C        3.44959986       0.12880014      -2.38500009
H        3.08449986       0.77399999      -3.05800026
H        2.95940025       0.24490004      -1.51839991
C        4.91270022       0.44739975      -2.15759994
H        5.22910004      -0.03720010      -1.34279987
H        5.44039997       0.14579996      -2.95130014
H        5.05969983       1.51819989      -2.01630010
23
Properties=species:S:1:pos:R:3 energy=-1.949490065053529 pbc="F F F"
C       -1.06020019      -2.15840006       0.21540000
H       -0.61850020      -2.32839983       1.10919988
H       -0.47019988      -2.66950005      -0.54550021
H       -2.06730009      -2.56780012       0.29409976
N       -1.11400005      -0.71519993       0.00000000
H       -1.98370014      -0.18929992      -0.15820017
C        0.00000000       0.00000000       0.00000000
O        1.11400005      -0.51719981      -0.00000000
C       -0.16059999       1.50190017      -0.03330006
H       -0.24059994       1.81260022      -1.00150015
H        0.68080024       1.94070026       0.33960000
H       -1.02360017       1.86429977       0.52539994
C        3.76729986      -3.39010023       1.09419982
H        4.60130007      -3.05589995       1.53559976
H        3.54370026      -2.74600002       0.24379988
H        3.93030020      -4.40820014       0.74059991
C        2.62670019      -3.45600025       2.10760011
H        1.79360011      -3.71750005       1.61649984
H        2.85079986      -4.16730015       2.77630018
C        2.36290006      -2.17690009       2.84419996
H        3.20310012      -1.85980018       3.29000001
H        2.04749986      -1.47250014       2.20350025
H        1.59970005      -2.29129974       3.61399987
23
Properties=species:S:1:pos:R:3 energy=-0.9450018865204649 pbc="F F F"
C       -1.08250024      -2.18209979       0.18439974
H       -0.79569996      -2.41760005       1.11679992
H       -0.42000001      -2.63660004      -0.55220012
H       -2.11520015      -2.48229990       0.00689994
N       -1.11929976      -0.73100010       0.00000000
H       -2.13179991      -0.37400023      -0.18800026
C        0.00000000       0.00000000       0.00000000
O        1.11929976      -0.50570026       0.00000000
C       -0.17170001       1.51200005       0.04390001
H       -0.83089976       1.78139993      -0.64889985
H       -0.56499986       1.77170011       1.02670009
H        0.76470023       2.03530021      -0.14949997
C        3.98659989      -0.34120023      -1.86099982
H        3.20119984       0.15030009      -1.52939992
H        4.79049998       0.22499980      -1.89560007
H        4.18009989      -1.17899994      -1.19120012
C        3.68230024      -0.81960024      -3.28020018
H        4.34759982      -1.55970008      -3.51710011
H        2.75999993      -1.26269990      -3.27610011
C        3.70979999       0.20470003      -4.35380019
H        4.63450012       0.60209994      -4.40020003
H        3.51330009      -0.24409992      -5.23459978
H        2.99230026       1.01200008      -4.20730013
23
Properties=species:S:1:pos:R:3 energy=-0.8040646419051003 pbc="F F F"
C       -1.14189986      -2.15980026      -0.08860014
H       -0.22829975      -2.42600021      -0.37380020
H       -1.81319977      -2.43799983      -0.90109988
H       -1.46060000      -2.61399994       0.84959983
N       -1.14529982      -0.71300014      -0.00000000
H       -2.00379988      -0.13449991       0.06819983
C        0.00000000       0.00000000       0.00000000
O        1.14529982      -0.53120025      -0.00000000
C       -0.16810002       1.52569991      -0.02409979
H       -1.12960019       1.72559978       0.16779998
H        0.44729974       1.96500008       0.76100022
H        0.11390010       1.89729979      -1.00930022
C        2.00550013      -3.01579996      -5.18300024
H        2.22800009      -3.32599994      -6.13930018
H        0.98829982      -3.13800021      -5.09120016
H        2.48470025      -3.70919991      -4.49190009
C        2.25209988      -1.49010005      -5.16609990
H        1.78419981      -1.09230008      -5.97639986