23
Properties=species:S:1:pos:R:3 energy=-1.5709478195100557 pbc="F F F"
C       -1.14579989      -2.15520012      -0.07330004
H       -0.21029979      -2.44969994      -0.10040026
H       -1.56300003      -2.36000017      -1.05920004
H       -1.81210014      -2.59420025       0.66930016
N       -1.12490004      -0.70540010      -0.00000000
H       -1.99480016      -0.12399998       0.05769990
C        0.00000000       0.00000000       0.00000000
O        1.12490004      -0.50530020       0.00000000
C       -0.19929978       1.50840005       0.01590019
H       -1.20769987       1.68519975       0.18370016
H        0.36180004       2.09469982       0.74359981
H       -0.01930015       1.89180005      -0.98829982
C        3.44579983      -1.71449976       2.50079994
H        4.31429976      -1.39910009       2.88500005
H        3.07530012      -1.01089992       1.89510000
H        2.79790013      -1.88850010       3.24229998
C        3.67400010      -2.99540018       1.71300007
H        4.61340024      -3.27190003       1.86939998
H        3.56180024      -2.79619989       0.64720013
C        2.69210015      -4.09199982       2.15329985
H        1.79020015      -3.88749982       1.77890010
H        3.01360017      -4.97070016       1.80820011
H        2.65339983      -4.10940023       3.14949976
23
Properties=species:S:1:pos:R:3 energy=-0.9831857485364024 pbc="F F F"
C       -1.06790024      -2.17619999      -0.00890023
H       -0.51630021      -2.50339979       0.75549995
H       -0.61989988      -2.50719981      -0.94580001
H       -2.06830023      -2.59489982       0.10089981
N       -1.12049993      -0.71960004      -0.00000000
H       -1.99510021      -0.17310021       0.00709997
C        0.00000000       0.00000000       0.00000000
O        1.12049993      -0.51339979       0.00000000
C       -0.15199980       1.51580007       0.00199976
H        0.69010000       1.89819992      -0.40489994
H       -0.98600002       1.84110011      -0.61999989
H       -0.26129977       1.87309999       1.02599999
C        3.36949989       0.85029993      -2.63050021
H        2.79870025       0.96259980      -1.83480026
H        4.32440016       0.96210026      -2.41840017
H        3.22309984      -0.16009992      -3.01229998
C        2.98690001       1.95130021      -3.62960001
H        2.13310010       1.69309983      -4.08030024
H        3.75679993       2.03229978      -4.39700010
C        2.80570020       3.27519998      -2.91430007
H        3.66000019       3.53289976      -2.45949977
H        2.55660009       3.98500019      -3.57520007
H        2.07969977       3.19250017      -2.22979982
23
Properties=species:S:1:pos:R:3 energy=-0.9723800307096794 pbc="F F F"
C       -1.05119994      -2.19460001      -0.02350023
H       -0.56049974      -2.50550009       0.79990003
H       -0.51399988      -2.56239987      -0.89779993
H       -2.03770003      -2.65260024       0.04780005
N       -1.12009987      -0.72879978      -0.00000000
H       -1.99679992      -0.19440013       0.01729986
C        0.00000000       0.00000000       0.00000000
O        1.12009987      -0.49529981      -0.00000000
C       -0.14670009       1.51900000      -0.03670003
H        0.75620005       1.91929980      -0.21849992
H       -0.82469992       1.81600018      -0.83690011
H       -0.45899984       1.92490009       0.92550025
C       -3.59770015      -0.86660018       5.78170022
H       -2.88709983      -0.20620025       6.04619992
H       -4.39330009      -0.71119988       6.37920002
H       -3.22180018      -1.87259992       5.96800023
C       -4.02450009      -0.56069977       4.33249975
H       -4.65089985      -1.26750007       4.03610019
H       -4.56060000       0.38689998       4.28269994
C       -2.81809988      -0.57669997       3.38150004
H       -2.39429985      -1.47819991       3.40780015
H       -3.12909998      -0.37599999       2.45619983
H       -2.16190004       0.11350004       3.67430014
23
Properties=species:S:1:pos:R:3 energy=-0.530614850582697 pbc="F F F"
C       -1.09630013      -2.17390019       0.01059995
H       -0.40910002      -2.47849988       0.66560015
H       -0.80830019      -2.51829983      -0.98260005
H       -2.07339991      -2.56810017       0.29000022
N       -1.11989984      -0.71509992      -0.00000000
H       -1.99520022      -0.15720003      -0.00770006
C        0.00000000       0.00000000       0.00000000
O        1.11989984      -0.50679989       0.00000000
C       -0.15669995       1.50649978      -0.03509980
H        0.63749978       1.89910005      -0.53499975
H       -1.06760020       1.83559985      -0.53509976
H       -0.10469983       1.93519999       0.96580026
C        3.26450002      -3.11389989       0.23040005
H        2.28779976      -3.27519998       0.16339987
H        3.72739990      -3.90249987       0.61289992
H        3.64769999      -2.95460009      -0.77749996
C        3.47050024      -1.94640003       1.19800005
H        3.17030013      -1.10030018       0.75220000
H        2.90559987      -2.09189995       2.11880014
C        4.95220013      -1.79639999       1.48420025
H        5.44399996      -1.61550023       0.63119993
H        5.09820012      -1.03420012       2.11759997
H        5.30360025      -2.63889984       1.89570009
23
Properties=species:S:1:pos:R:3 energy=-1.1141223676039338 pbc="F F F"
C       -1.17079981      -2.11999979       0.09429991
H       -0.21330022      -2.43149995       0.08959976
H       -1.64549981      -2.56159975      -0.78180006
H       -1.79440023      -2.41760005       0.93719982
N       -1.13010026      -0.66769993       0.00000000
H       -1.99000000      -0.07979992      -0.07249992
C        0.00000000       0.00000000       0.00000000
O        1.13010026      -0.57229986       0.00000000
C        0.06230003       1.54110003       0.08239977
H       -0.83250000       1.85520004       0.40369977
H        0.82590010       1.83360009       0.80309997
H        0.27390001       1.88389997      -0.93039990
C        3.56500018      -3.57749987       0.12140013
H        4.50459982      -3.84960015      -0.06600004
H        3.43849984      -2.58769983      -0.31719993
H        2.92260021      -4.27640009      -0.41440026
C        3.22480009      -3.62479985       1.62670026
H        2.28909995      -3.32760017       1.73850006
H        3.86720005      -2.92469999       2.16079988
C        3.31620010      -5.00420025       2.20650015
H        3.03369991      -4.99330026       3.16829984
H        2.71889980      -5.63130012       1.70129996
H        4.25890019      -5.34000024       2.14969986
23
Properties=species:S:1:pos:R:3 energy=-1.3091979331668135 pbc="F F F"
C       -1.11699995      -2.15659980      -0.03090024
H       -0.18990000      -2.44599993      -0.23259984
H       -1.73059997      -2.45150020      -0.88219979
H       -1.54299978      -2.55929995       0.88810012
N       -1.12289975      -0.71059979      -0.00000000
H       -1.99440011      -0.13779986       0.02389976
C        0.00000000       0.00000000       0.00000000
O        1.12289975      -0.50939974       0.00000000
C       -0.17320023       1.51570005      -0.00810012
H       -0.88810012       1.74799985       0.65619985
H        0.75139989       2.00100000       0.30460022
H       -0.44970008       1.82789979      -1.01520002
C        3.96009976       0.08359994      -2.58129996
H        4.83180014      -0.16110006      -3.00960012
H        3.67169976      -0.71759975      -1.90089978
H        4.11310023       1.00289982      -2.01570002
C        2.84550015       0.30929984      -3.63139974
H        2.08749984       0.75690015      -3.16740023
H        3.19339977       0.98320014      -4.41429996
C        2.36630003      -1.02700014      -4.20579991
H        1.87549981      -1.52889985      -3.49600023
H        1.75949993      -0.85029993      -4.97850023
H        3.15799993      -1.55360025      -4.50869988
23
Properties=species:S:1:pos:R:3 energy=-1.0277998568158306 pbc="F F F"
C       -1.10820026      -2.17129981       0.03559987
H       -0.23900024      -2.45249982       0.48799981
H       -1.12019989      -2.64030005      -0.94829985
H       -1.96329983      -2.51740023       0.61609986
N       -1.11860018      -0.71360023      -0.00000000
H       -1.99460013      -0.14939996      -0.02749975
C        0.00000000       0.00000000       0.00000000
O        1.11860018      -0.49770016       0.00000000
C       -0.17600011       1.50409996       0.00919975
H       -1.09379976       1.69060000       0.36980015
H        0.53519977       1.95679995       0.70019987
H       -0.03279999       1.91969986      -0.98819981
C        2.48519979      -4.68290026      -0.67159996
H        1.50250026      -4.41659977      -0.57889976
H        2.80940021      -5.10449997       0.27979980
H        2.56420013      -5.36040002      -1.52179988
C        3.31330021      -3.41379996      -1.01699975
H        3.35310016      -2.85680020      -0.19679995
H        2.85680020      -2.86249997      -1.83909982
C        4.72930010      -3.80799994      -1.36919999
H        5.21289981      -4.10800002      -0.54470009
H        4.71699991      -4.55700000      -2.03430007
H        5.21090005      -3.02490022      -1.76589980
23
Properties=species:S:1:pos:R:3 energy=-0.8687774049926746 pbc="F F F"
C       -1.06790024      -2.17619999      -0.00890023
H       -0.51630021      -2.50339979       0.75549995
H       -0.61989988      -2.50719981      -0.94580001
H       -2.06830023      -2.59489982       0.10089981
N       -1.12049993      -0.71960004      -0.00000000
H       -1.99510021      -0.17310021       0.00709997
C        0.00000000       0.00000000       0.00000000
O        1.12049993      -0.51339979       0.00000000
C       -0.15199980       1.51580007       0.00199976
H        0.69010000       1.89819992      -0.40489994
H       -0.98600002       1.84110011      -0.61999989
H       -0.26129977       1.87309999       1.02599999
C        3.36949989       0.85029993      -2.63050021
H        2.79870025       0.96259980      -1.83480026
H        4.32440016       0.96210026      -2.41840017
H        3.22309984      -0.16009992      -3.01229998
C        2.98690001       1.95130021      -3.62960001
H        2.13310010       1.69309983      -4.08030024
H        2.85660017       2.90340008      -3.11520008
C        4.06349992       2.06450021      -4.70269995
H        4.14600024       1.19249978      -5.18520003
H        3.81199999       2.78250002      -5.35249993
H        4.93810020       2.29279996      -4.27479985
23
Properties=species:S:1:pos:R:3 energy=-1.4241976146191295 pbc="F F F"
C       -1.12429995      -2.12930008      -0.08639982
H       -0.26259996      -2.42900012      -0.48399976
H       -1.91229985      -2.43889996      -0.77289983
H       -1.36169996      -2.60160026       0.86680020
N       -1.13700020      -0.68999998      -0.00000000
H       -1.99510021      -0.11679999       0.06539995
C        0.00000000       0.00000000       0.00000000
O        1.13700020      -0.49649999      -0.00000000
C       -0.17089990       1.47960011       0.05429993
H       -1.10859979       1.68529976       0.37929994
H        0.53199984       1.93799987       0.74990020
H       -0.02230006       1.84239977      -0.96269982
C        2.92580015      -3.46409984       0.24369986
H        2.24059980      -2.78770024       0.49649999
H        2.47019974      -4.44060007       0.40799986
H        3.10860018      -3.33110015      -0.82260015
C        4.25050004      -3.38689977       1.09270013
H        4.69390026      -4.26469998       1.02149987
H        4.00119989      -3.20819980       2.13859984
C        5.08030017      -2.15409997       0.83219995
H        5.86960026      -2.13970000       1.44630005
H        5.40249977      -2.15470005      -0.11519976
H        4.52930022      -1.33380015       0.98909994
23
Properties=species:S:1:pos:R:3 energy=-1.353130300334953 pbc="F F F"
C       -1.14579989      -2.15520012      -0.07330004
H       -0.21029979      -2.44969994      -0.10040026
H       -1.56300003      -2.36000017      -1.05920004
H       -1.81210014      -2.59420025       0.66930016
N       -1.12490004      -0.70540010      -0.00000000
H       -1.99480016      -0.12399998       0.05769990
C        0.00000000       0.00000000       0.00000000
O        1.12490004      -0.50530020       0.00000000
C       -0.19929978       1.50840005       0.01590019
H       -1.20769987       1.68519975       0.18370016
H        0.36180004       2.09469982       0.74359981
H       -0.01930015       1.89180005      -0.98829982
C        4.66509980       0.75760025      -0.76700003
H        5.61220000       0.47419993      -0.76989992
H        4.07540006      -0.12530017      -0.52010023
H        4.54869986       1.44059975       0.07450021
C        4.14279977       1.42800004      -2.03830012
H        3.21319999       1.72840019      -1.87130026
H        4.77330013       2.27799993      -2.29919983
C        4.11339975       0.40550003      -3.17149977
H        5.04819975       0.23850017      -3.47340013
H        3.72960022      -0.44459987      -2.81839993
H        3.51849979       0.72700005      -4.02639984
23
Properties=species:S:1:pos:R:3 energy=-0.7825433509024898 pbc="F F F"
C       -1.07309994      -2.18319995       0.01309978
H       -0.54709991      -2.48340006       0.80850022
H       -0.57410012      -2.53570023      -0.88959980
H       -2.08230014      -2.59040022       0.07460023
N       -1.11790008      -0.72119974       0.00000000
H       -1.99450012      -0.17439987      -0.00969982
C        0.00000000       0.00000000       0.00000000
O        1.11790008      -0.51240017      -0.00000000
C       -0.16480007       1.52340011      -0.02009974
H        0.66699982       1.92190018      -0.39759994
H       -1.00249976       1.77279974      -0.67119990
H       -0.32419989       1.88130012       0.99710004
C        2.93439981      -3.52629986       0.97059990
H        3.09710010      -2.77119997       1.61780003
H        1.98909987      -3.44810017       0.62729989
H        3.61019985      -3.39630007       0.12530017
C        3.05350013      -4.83709985       1.73359988
H        2.25060019      -4.93489974       2.33470021
H        3.04930005      -5.59719994       1.07339998
C        4.30630018      -4.91600017       2.56909978
H        5.08899984      -5.03769982       1.97489992
H        4.39330009      -4.09120023       3.10900024
H        4.25040002      -5.76809983       3.24640004
23
Properties=species:S:1:pos:R:3 energy=-0.9562228296180906 pbc="F F F"
C       -1.17919997      -2.15070000      -0.13129998
H       -0.28469998      -2.48760014      -0.42450014
H       -1.41390012      -2.55819979       0.75149990
H       -1.93570006      -2.40879984      -0.87239996
N       -1.13280012      -0.70299975      -0.00000000
H       -1.99649988      -0.11239988       0.10419975
C        0.00000000       0.00000000       0.00000000
O        1.13280012      -0.50770002      -0.00000000
C       -0.15870024       1.50580021       0.09600015
H       -1.06650004       1.68169977       0.47429994
H        0.54870014       1.90089978       0.82520000
H       -0.04790006       1.95010004      -0.89319980
C        0.31570024      -4.65139993       3.13820024
H        1.17740024      -5.12300001       3.39340018
H       -0.47250021      -4.96109983       3.82440020
H        0.49380012      -3.57620021       3.15930012
C        0.01110002      -5.12790019       1.72239984
H       -0.92890021      -4.91839999       1.51739977
H        0.63099990      -4.68029988       1.10109976
C        0.20480005      -6.62649988       1.59099985
H        1.16620020      -6.84680006       1.66409986
H       -0.32469996      -7.09369985       2.28240004
H       -0.14730018      -6.95670011       0.61380005
23
Properties=species:S:1:pos:R:3 energy=-1.2407077507206514 pbc="F F F"
C       -1.15870017      -2.17619999       0.15579982
H       -0.81319985      -2.40690009       1.06499982
H       -0.50619980      -2.63909987      -0.58450004
H       -2.16749979      -2.56460019       0.01610022
N       -1.12830000      -0.71670015       0.00000000
H       -1.99760004      -0.14380020      -0.12120010
C        0.00000000       0.00000000       0.00000000
O        1.12830000      -0.51009984       0.00000000
C       -0.16580022       1.50649978       0.22290002
H       -0.95119974       1.65220025       0.81890014
H        0.73729996       1.87559982       0.70920012
H       -0.43279975       2.10790015      -0.64599996
C        2.36670008      -2.95359994       2.47069981
H        3.06929978      -2.35769984       2.85210005
H        1.94400021      -2.49500016       1.69150013
H        1.59129990      -3.05280003       3.23029983
C        3.01010019      -4.26980019       1.99780007
H        2.31270020      -4.81390019       1.55920001
H        3.77640012      -4.05229989       1.25380020
C        3.63800017      -5.09249982       3.16859988
H        2.92039989      -5.31129978       3.81799980
H        4.03120000      -5.92249999       2.79269991
H        4.33950023      -4.53960013       3.59889980
23
Properties=species:S:1:pos:R:3 energy=-1.2781425054883038 pbc="F F F"
C       -1.08950020      -2.16690023       0.01270025
H       -0.15120022      -2.47559999      -0.16800001
H       -1.74469990      -2.55899991      -0.76509975
H       -1.40499988      -2.53629979       0.98849985
N       -1.12009987      -0.71099985      -0.00000000
H       -1.99370000      -0.15490022      -0.00919975
C        0.00000000       0.00000000       0.00000000
O        1.12009987      -0.52139989       0.00000000
C       -0.14939996       1.51119993      -0.00619984
H        0.16070001       1.87179980      -0.92030002
H        0.51429992       1.91350002       0.67179999
H       -1.14579989       1.89940010       0.20480005
C       -4.32279993      -0.79600000      -4.01370011
H       -3.89660008      -1.58930014      -3.57650026
H       -5.01480020      -1.12449998      -4.78919979
H       -4.86910025      -0.21970009      -3.26699985
C       -3.20230000       0.04830012      -4.63020003
H       -2.73160005      -0.51490001      -5.28559976
H       -3.61769988       0.83599997      -5.04869982
C       -2.17630001       0.54550021      -3.62549995
H       -2.61369990       1.19150016      -3.02979987
H       -1.81379986      -0.22750016      -3.14150019
H       -1.33869980       1.05449989      -4.10230025
23
Properties=species:S:1:pos:R:3 energy=-1.1944871112550055 pbc="F F F"
C       -1.05119994      -2.19460001      -0.02350023
H       -0.56049974      -2.50550009       0.79990003
H       -0.51399988      -2.56239987      -0.89779993
H       -2.03770003      -2.65260024       0.04780005
N       -1.12009987      -0.72879978      -0.00000000
H       -1.99679992      -0.19440013       0.01729986
C        0.00000000       0.00000000       0.00000000
O        1.12009987      -0.49529981      -0.00000000
C       -0.14670009       1.51900000      -0.03670003
H        0.75620005       1.91929980      -0.21849992
H       -0.82469992       1.81600018      -0.83690011
H       -0.45899984       1.92490009       0.92550025
C        3.53250023      -0.92790006      -2.89079984
H        3.95319981      -1.10350011      -3.78629997
H        2.46079996      -1.10340010      -2.98430016
H        3.97040019      -1.62049989      -2.17189990
C        3.85760025       0.52109985      -2.52750010
H        3.51720013       1.12799996      -3.24129983
H        3.42960013       0.74970017      -1.65500013
C        5.38909994       0.80899977      -2.37440014
H        5.50539986       1.78290015      -2.17740017
H        5.73219992       0.26989996      -1.60509978
H        5.99270010       0.56960000      -3.24990002
23
Properties=species:S:1:pos:R:3 energy=-0.6941669684016568 pbc="F F F"
C       -1.06139983      -2.18390005      -0.06429979
H       -0.51679975      -2.46779992       0.73470011
H       -0.52849986      -2.53329989      -0.94869990
H       -2.05779977      -2.62570005      -0.07609992
N       -1.13539997      -0.71290013      -0.00000000
H       -2.00009987      -0.18020019       0.04520020
C        0.00000000       0.00000000       0.00000000
O        1.13539997      -0.53969990      -0.00000000
C       -0.15040010       1.51610011       0.04500017
H        0.73279984       1.93320023      -0.21769980
H       -0.91609994       1.87869974      -0.64089975
H       -0.43110003       1.78360025       1.06370016
C        0.15120022      -4.92750025       2.29589988
H       -0.58399997      -4.48289985       2.80850008
H        0.72400015      -4.23069981       1.86340017
H       -0.24419994      -5.51730000       1.59099985
C        0.99800017      -5.76459986       3.24360017
H        1.70869998      -6.22710021       2.74020024
H        0.35070002      -6.51359992       3.69980013
C        1.78250009      -4.92970004       4.23640011
H        2.36969999      -5.52530010       4.78780011
H        2.35099993      -4.26739984       3.74549988
H        1.14989996      -4.43959992       4.83920015
23
Properties=species:S:1:pos:R:3 energy=0.5670950098829722 pbc="F F F"
C       -1.02720017      -2.17660005      -0.04450010
H       -0.31860013      -2.47539996       0.57549979
H       -0.72740011      -2.43149995      -1.06089976
H       -1.98670005      -2.64259985       0.17930006
N       -1.11569976      -0.72300000      -0.00000000
H       -1.99120017      -0.19500021       0.03239993
C        0.00000000       0.00000000       0.00000000
O        1.11569976      -0.51650024       0.00000000
C       -0.15120022       1.51910002      -0.01279974
H        0.56410026       1.90280006      -0.61899975
H       -1.12480002       1.83909982      -0.38410010
H        0.07100024       1.93670021       0.96920023
C        3.84290023      -2.72140016       0.06419978
H        2.95699991      -3.16799979       0.16440001
H        4.56110007      -3.29860020       0.44419982
H        4.03809995      -2.60659993      -1.00200022
C        3.80059992      -1.43399985       0.89920014
H        3.03669981      -0.87859980       0.59190005
H        3.66949997      -1.69800001       1.94849980
C        5.06049995      -0.61040009       0.71230004
H        5.15869989      -0.35830007      -0.25149994
H        5.00479981       0.22179986       1.26790012
H        5.85870026      -1.14539983       0.99700002
23
Properties=species:S:1:pos:R:3 energy=-0.8674261334379275 pbc="F F F"
C       -1.12860005      -2.15989975       0.01029991
H       -0.47950017      -2.44040018       0.72269996
H       -0.74280023      -2.54590012      -0.93319977
H       -2.12910005      -2.54699975       0.20349986
N       -1.12759990      -0.71089984       0.00000000
H       -1.99709997      -0.13419987      -0.00800010
C        0.00000000       0.00000000       0.00000000
O        1.12759990      -0.50679989      -0.00000000
C       -0.17530000       1.52720013       0.00430009
H        0.69209976       1.94109979      -0.30030013
H       -0.97079993       1.84150017      -0.67119990
H       -0.41390019       1.83529980       1.02229999
C        3.09360012      -3.43770025       0.94399975
H        3.09040019      -2.53540019       1.38959977
H        2.14340000      -3.70700012       0.75720020
H        3.60080007      -3.33030003      -0.01470001
C        3.65210010      -4.44309990       1.97359974
H        3.63860026      -5.35869977       1.56760017
H        4.67170022      -4.19469989       2.26800007
C        2.75239989      -4.41349985       3.20929996
H        1.82250006      -4.66959992       2.94790017
H        3.09989998      -5.05999987       3.88749982
H        2.75030011      -3.49120006       3.59489975
23
Properties=species:S:1:pos:R:3 energy=-1.1080089728077025 pbc="F F F"
C       -1.10810025      -2.15769996      -0.28580014
H       -0.19619986      -2.48269996      -0.12900017
H       -1.31820001      -2.22699995      -1.35309977
H       -1.82489988      -2.72339992       0.30939986
N       -1.13640012      -0.71370024       0.00000000
H       -1.98949992      -0.18549990       0.20789997
C        0.00000000       0.00000000       0.00000000
O        1.13640012      -0.48580002      -0.00000000
C       -0.17580008       1.51210006       0.11199983
H       -1.13940002       1.69049998       0.37829979
H        0.47439996       1.96269974       0.86190002
H       -0.01890009       1.97019977      -0.86439986
C        3.18359994      -3.70939994       0.82220009
H        4.05010010      -4.15630014       1.05069987
H        3.37589976      -2.67290001       0.54560022
H        2.76520016      -4.23990009      -0.03320005
C        2.14410010      -3.85400025       1.95599983
H        1.26450016      -3.55780019       1.59340020
H        2.50870003      -3.18850012       2.73860001
C        2.00009987      -5.29930016       2.36529988
H        1.07880024      -5.46149985       2.72480012
H        2.15180016      -5.89450016       1.57299989
H        2.67219991      -5.52170011       3.07460002
23
Properties=species:S:1:pos:R:3 energy=-2.0189060792102964 pbc="F F F"
C       -1.05119994      -2.18679994      -0.08850013
H       -0.47970020      -2.53850011       0.67270012
H       -1.98310005      -2.56700001       0.03959992
H       -0.64449974      -2.53550021      -1.03770010
N       -1.11589979      -0.72660000      -0.00000000
H       -1.99299990      -0.19289991       0.06499989
C        0.00000000       0.00000000       0.00000000
O        1.11589979      -0.51900007       0.00000000
C       -0.17439987       1.51310020       0.03070022
H        0.68539985       1.94290005      -0.26710008
H       -0.97190009       1.82459984      -0.64400020
H       -0.36180004       1.86179994       1.04619975
C        3.97300004      -3.02850021      -0.42730001
H        4.88779979      -2.69099999      -0.21580005
H        3.47079975      -2.31099995      -1.07629987
H        4.07419989      -3.97529984      -0.95780016
C        3.25100018      -3.20340016       0.89260024
H        2.27339979      -3.26689984       0.70530008
H        3.57409991      -4.04640009       1.31359987
C        3.44639992      -2.08610017       1.90420026
H        3.43050026      -1.19949974       1.41850025
H        2.68410004      -2.08280022       2.68329993
H        4.43469974      -2.15130009       2.35920006
23
Properties=species:S:1:pos:R:3 energy=-1.509053822848947 pbc="F F F"
C       -1.05119994      -2.19460001      -0.02350023
H       -0.56049974      -2.50550009       0.79990003
H       -0.51399988      -2.56239987      -0.89779993
H       -2.03770003      -2.65260024       0.04780005
N       -1.12009987      -0.72879978      -0.00000000
H       -1.99679992      -0.19440013       0.01729986
C        0.00000000       0.00000000       0.00000000
O        1.12009987      -0.49529981      -0.00000000
C       -0.14670009       1.51900000      -0.03670003
H        0.75620005       1.91929980      -0.21849992
H       -0.82469992       1.81600018      -0.83690011
H       -0.45899984       1.92490009       0.92550025
C        3.09099975      -2.98229987       1.51109991
H        2.13859984      -2.98939984       1.26599985
H        3.33530023      -3.74360013       2.08200010
H        3.67579983      -3.04680022       0.59359977
C        3.35419979      -1.70059986       2.30810006
H        3.28839978      -0.91909985       1.68810017
H        2.62340024      -1.59950003       3.11039991
C        4.78860023      -1.67939996       2.86139981
H        5.43289994      -1.72400008       2.10060015
H        4.92849987      -0.83449976       3.37379998
H        4.91870003      -2.46580016       3.46280018
23
Properties=species:S:1:pos:R:3 energy=-0.6901481554837394 pbc="F F F"
C       -1.09620011      -2.16769982       0.05550011
H       -0.53370009      -2.41589981       0.86550002
H       -0.63180002      -2.62159998      -0.81989976
H       -2.08389985      -2.57850009       0.26489976
N       -1.12449998      -0.70270024      -0.00000000
H       -1.99470015      -0.14929994      -0.04100012
C        0.00000000       0.00000000       0.00000000
O        1.12449998      -0.51679975       0.00000000
C       -0.13660022       1.52340011      -0.01940017
H        0.74500002       1.92230024      -0.28459997
H       -0.88949979       1.82899995      -0.74600016
H       -0.44280014       1.86740022       0.96850013
C        2.93919997       4.96270006       1.26569981
H        2.85429984       3.99079997       1.00349991
H        2.49060005       5.04119980       2.25599992
H        4.00250008       5.20249989       1.27369991
C        2.17119980       5.89720002       0.28580014
H        2.16889999       6.80360015       0.67680019
H        2.66459986       5.91829991      -0.68589992
C        0.71990008       5.41890003       0.16800001
H        0.71409977       4.54290008      -0.31890018
H        0.36670023       5.26129994       1.09369975
H        0.05039990       6.10940008      -0.34490024
23
Properties=species:S:1:pos:R:3 energy=-0.323310919718085 pbc="F F F"
C       -1.06790024      -2.18520024      -0.01089999
H       -0.56690013      -2.49649984       0.79859985
H       -0.54339990      -2.52740009      -0.90300016
H       -2.07570025      -2.60020006       0.00750003
N       -1.11649988      -0.72390013       0.00000000
H       -1.99420008      -0.17940007       0.00810012
C        0.00000000       0.00000000       0.00000000
O        1.11649988      -0.51109999       0.00000000
C       -0.16269977       1.52630000       0.00520022
H        0.71149992       1.90390022      -0.30589988
H       -0.90990010       1.83279997      -0.72680002
H       -0.43090000       1.83030014       1.01699975
C        3.64979977      -3.40959988       0.30820021
H        4.47499976      -3.08749977       0.76499974
H        3.35260009      -2.70459984      -0.46830013
H        3.84570011      -4.37399994      -0.16059999
C        2.54320026      -3.57729984       1.34750002
H        1.72090016      -3.83070005       0.86560003