6
Properties=species:S:1:pos:R:3 energy=-4.0648877841222255 pbc="F F F"
O        1.92659980      -2.64410007       0.10859986
H        2.03349995      -2.71999996      -0.88309992
H        1.15840013      -3.23180004       0.36270018
O        0.00000000       0.00000000       0.00000000
H        0.59640018      -0.80249988       0.00000000
H        0.59650019       0.80249988      -0.00000000
6
Properties=species:S:1:pos:R:3 energy=3.3772415021940803 pbc="F F F"
O       -1.39479999       0.78039985       2.31990018
H       -2.23990023       1.31540013       2.29810020
H       -1.18030013       0.61740004       3.28290004
O        0.00000000       0.00000000       0.00000000
H        0.55920008      -0.82910003      -0.00000000
H        0.55849998       0.82910003      -0.00000000
6
Properties=species:S:1:pos:R:3 energy=1.8333605144476393 pbc="F F F"
O       -2.53860013      -0.07969991       2.14209981
H       -3.10559975       0.69830013       1.87229987
H       -2.23759990      -0.01180012       3.09310005
O        0.00000000       0.00000000       0.00000000
H        0.55819993      -0.82950009      -0.00000000
H        0.55980016       0.82950009       0.00000000
6
Properties=species:S:1:pos:R:3 energy=-0.4355052044542802 pbc="F F F"
O       -1.89250015       0.48789980      -1.85779989
H       -1.93489995      -0.47299976      -2.13089978
H       -1.24409985       0.63670020      -1.11130018
O        0.00000000       0.00000000       0.00000000
H        0.55910006      -0.82920005       0.00000000
H        0.55940011       0.82920005       0.00000000
6
Properties=species:S:1:pos:R:3 energy=1.5566952510947185 pbc="F F F"
O       -1.41760012       0.90700021      -2.26040002
H       -1.05049984       1.42279982      -1.48690011
H       -1.95299993       1.48459978      -2.87679992
O        0.00000000       0.00000000       0.00000000
H        0.55799990      -0.82890000      -0.00000000
H        0.55980016       0.82890000       0.00000000
6
Properties=species:S:1:pos:R:3 energy=3.1843752163669143 pbc="F F F"
O        1.34559974      -0.20260026      -2.70129989
H        1.56020015      -0.94380025      -2.06599990
H        1.56070022       0.69530022      -2.31729980
O        0.00000000       0.00000000       0.00000000
H        0.55890003      -0.82930006      -0.00000000
H        0.55910006       0.82930006       0.00000000
6
Properties=species:S:1:pos:R:3 energy=-3.5601182586858613 pbc="F F F"
O        0.78849997       3.09690007       0.01819999
H        1.29129981       3.49580020       0.78520002
H        1.22440017       3.29480018      -0.85999975
O        0.00000000       0.00000000       0.00000000
H        0.55950012      -0.82930006      -0.00000000
H        0.55829995       0.82930006      -0.00000000
6
Properties=species:S:1:pos:R:3 energy=5.272179408509421 pbc="F F F"
O       -1.43699976       0.25630010      -1.86740022
H       -0.83030021       0.14799975      -1.07979985
H       -1.82469985       1.17680015      -1.91899976
O        0.00000000       0.00000000       0.00000000
H        0.55839996      -0.82900002       0.00000000
H        0.55920008       0.82900002       0.00000000
6
Properties=species:S:1:pos:R:3 energy=-3.56080859915692 pbc="F F F"
O        1.61500016       2.18450014      -0.09540007
H        1.59129990       2.68249981      -0.96229976
H        2.57200020       1.95380004       0.07989994
O        0.00000000       0.00000000       0.00000000
H        0.55870000      -0.82890000      -0.00000000
H        0.55900005       0.82890000       0.00000000
6
Properties=species:S:1:pos:R:3 energy=-1.657034428669725 pbc="F F F"
O       -1.84719994       0.88480017       1.62920010
H       -1.14100025       0.54679987       1.00709990
H       -1.85719980       1.88329988       1.67720017
O        0.00000000       0.00000000       0.00000000
H        0.55900005      -0.82900002      -0.00000000
H        0.55839996       0.82900002       0.00000000
6
Properties=species:S:1:pos:R:3 energy=-1.0953262884778883 pbc="F F F"
O        1.41249991      -2.09539993      -0.00070010
H        1.89069989      -2.35779985       0.83780024
H        0.77780001      -2.80460004      -0.30730008
O        0.00000000       0.00000000       0.00000000
H        0.55859999      -0.82920005       0.00000000
H        0.55880002       0.82920005      -0.00000000
6
Properties=species:S:1:pos:R:3 energy=0.3548057323123593 pbc="F F F"
O       -1.84009997       2.62250011       2.38399995
H       -2.83999988       2.65329981       2.37159974
H       -1.46160015       3.04590009       3.20730020
O        0.00000000       0.00000000       0.00000000
H        0.55960014      -0.82900002       0.00000000
H        0.55940011       0.82900002       0.00000000
6
Properties=species:S:1:pos:R:3 energy=-1.86335092594692 pbc="F F F"
O       -2.35580009       2.02710008      -1.78580004
H       -1.83780016       2.87830014      -1.86710018
H       -1.89570009       1.47369979      -1.09190002
O        0.00000000       0.00000000       0.00000000
H        0.55839996      -0.82910003       0.00000000
H        0.56000019       0.82910003      -0.00000000
6
Properties=species:S:1:pos:R:3 energy=-4.249552751721059 pbc="F F F"
O        1.59889994       2.24419979      -0.05180010
H        1.03750007       3.07150010      -0.05819997
H        2.10780013       2.24730024       0.80899977
O        0.00000000       0.00000000       0.00000000
H        0.55870000      -0.82900002      -0.00000000
H        0.55849998       0.82900002       0.00000000
6
Properties=species:S:1:pos:R:3 energy=8.155992206863534 pbc="F F F"
O       -0.72730010       2.07659985       1.24489997
H        0.11889977       2.46079996       0.87539986
H       -1.53880022       2.50900007       0.85059997
O        0.00000000       0.00000000       0.00000000
H        0.55920008      -0.82900002      -0.00000000
H        0.55849998       0.82900002      -0.00000000
6
Properties=species:S:1:pos:R:3 energy=-3.7169659105023944 pbc="F F F"
O       -2.13839981       1.36690018       1.82280011
H       -1.72169974       2.21390017       2.15359989
H       -1.51250012       0.83959997       1.24819992
O        0.00000000       0.00000000       0.00000000
H        0.55859999      -0.82920005       0.00000000
H        0.55880002       0.82920005      -0.00000000
6
Properties=species:S:1:pos:R:3 energy=-3.6214092884632016 pbc="F F F"
O       -1.68529976       0.57860024       2.04299974
H       -1.06350014       0.36580010       1.28900001
H       -2.17929991      -0.22999999       2.36239999
O        0.00000000       0.00000000       0.00000000
H        0.55920008      -0.82890000      -0.00000000
H        0.55859999       0.82890000      -0.00000000
6
Properties=species:S:1:pos:R:3 energy=-4.5658533824273 pbc="F F F"
O        1.65130012       2.40760019       0.08110011
H        2.58670022       2.20089987       0.36660021
H        1.71430026       2.86619998      -0.80529976
O        0.00000000       0.00000000       0.00000000
H        0.55970015      -0.82920005       0.00000000
H        0.55839996       0.82920005      -0.00000000
6
Properties=species:S:1:pos:R:3 energy=0.26674701013396024 pbc="F F F"
O       -2.51929997      -0.21970009       0.93250020
H       -1.97980011      -0.57559981       1.69500011
H       -2.03239979      -0.46540024       0.09439992
O        0.00000000       0.00000000       0.00000000
H        0.55859999      -0.82910003       0.00000000
H        0.55980016       0.82910003       0.00000000
6
Properties=species:S:1:pos:R:3 energy=0.8517395753390042 pbc="F F F"
O        1.15569974      -2.85799985      -2.47580002
H        1.51139996      -2.95510016      -1.54649975
H        1.36940002      -3.65260017      -3.04439987
O        0.00000000       0.00000000       0.00000000
H        0.55910006      -0.82869998       0.00000000
H        0.55849998       0.82869998      -0.00000000
6
Properties=species:S:1:pos:R:3 energy=-4.836952193912587 pbc="F F F"
O        1.58099999       2.60909976       0.05850001
H        0.93329979       3.25830018       0.45660003
H        2.42550014       2.54719978       0.59079989
O        0.00000000       0.00000000       0.00000000
H        0.55900005      -0.82950009      -0.00000000
H        0.55849998       0.82950009       0.00000000
6
Properties=species:S:1:pos:R:3 energy=0.4806978551250465 pbc="F F F"
O        0.54830009      -0.16619974       2.97109983
H        1.47109994      -0.41680008       2.67909985
H       -0.14770024      -0.76070017       2.56850022
O        0.00000000       0.00000000       0.00000000
H        0.55910006      -0.82869998       0.00000000
H        0.55849998       0.82869998      -0.00000000
6
Properties=species:S:1:pos:R:3 energy=-2.4036960665554976 pbc="F F F"
O        1.40449981       2.19339984      -0.05500003
H        0.91350009       2.95580026       0.36600012
H        2.27870003       2.11289982       0.42480018
O        0.00000000       0.00000000       0.00000000
H        0.55880002      -0.82900002       0.00000000
H        0.55940011       0.82900002       0.00000000
6
Properties=species:S:1:pos:R:3 energy=1.6380903441974932 pbc="F F F"
O       -1.89749982       0.53299998       2.56629991
H       -2.64050008      -0.11299997       2.74069978
H       -2.22870019       1.38390000       2.15940020
O        0.00000000       0.00000000       0.00000000
H        0.55890003      -0.82920005       0.00000000
H        0.55880002       0.82920005       0.00000000
6
Properties=species:S:1:pos:R:3 energy=1.200499942234645 pbc="F F F"
O       -2.10159977       2.58160001       1.59159994
H       -2.69650025       3.26289979       2.01690019
H       -1.16719982       2.93139990       1.65969975
O        0.00000000       0.00000000       0.00000000
H        0.55890003      -0.82920005       0.00000000
H        0.55880002       0.82920005       0.00000000
6
Properties=species:S:1:pos:R:3 energy=-1.128895037351304 pbc="F F F"
O        1.90040024       2.26160020      -0.58369992
H        1.68199981       2.55849983       0.34519976
H        2.59949995       2.88739987      -0.93009985
O        0.00000000       0.00000000       0.00000000
H        0.55960014      -0.82900002      -0.00000000
H        0.55910006       0.82900002       0.00000000
6
Properties=species:S:1:pos:R:3 energy=8.91894424636853 pbc="F F F"
O        0.77430003       2.14110020       0.06879992
H        1.38219976       2.45949977      -0.65780008
H       -0.07350007       2.66489991      -0.01379988
O        0.00000000       0.00000000       0.00000000
H        0.55920008      -0.82890000       0.00000000
H        0.55880002       0.82890000      -0.00000000
6
Properties=species:S:1:pos:R:3 energy=-3.7325608630798315 pbc="F F F"
O        0.51839999       2.79760009      -0.54759998
H       -0.03680004       3.19510002       0.18360015
H        1.24389982       3.41709991      -0.84720001
O        0.00000000       0.00000000       0.00000000
H        0.55839996      -0.82900002       0.00000000
H        0.55920008       0.82900002       0.00000000
6
Properties=species:S:1:pos:R:3 energy=-1.2867529464626115 pbc="F F F"
O        3.09889983      -0.26410017      -1.53329996
H        3.76039992      -0.05480000      -0.81269977
H        3.49389993      -0.16339987      -2.44650001
O        0.00000000       0.00000000       0.00000000
H        0.55880002      -0.82940008       0.00000000
H        0.55900005       0.82940008       0.00000000
6
Properties=species:S:1:pos:R:3 energy=-0.18941202438447352 pbc="F F F"
O       -2.60870023      -1.78529996      -0.29220001
H       -2.13479981      -1.51419983      -1.12980022
H       -3.57920012      -1.96550015      -0.45229993
O        0.00000000       0.00000000       0.00000000
H        0.55950012      -0.82879999       0.00000000
H        0.55849998       0.82879999      -0.00000000
6
Properties=species:S:1:pos:R:3 energy=-0.5506274225653742 pbc="F F F"
O        0.19599983       1.85049989      -3.28040021
H       -0.67069983       1.48990002      -3.62650009
H        0.45619997       2.70179996      -3.73620012
O        0.00000000       0.00000000       0.00000000
H        0.55870000      -0.82910003       0.00000000
H        0.55920008       0.82910003      -0.00000000
6
Properties=species:S:1:pos:R:3 energy=6.461544279619359 pbc="F F F"
O        1.84530019       1.86109984       0.80659995
H        1.74859994       0.88530024       0.61060012
H        2.31940011       2.34669983       0.07189984
O        0.00000000       0.00000000       0.00000000
H        0.55960014      -0.82910003      -0.00000000
H        0.55839996       0.82910003       0.00000000
6
Properties=species:S:1:pos:R:3 energy=1.2242092994229008 pbc="F F F"
O       -0.56489984       1.35580016      -3.01099979
H       -1.45800016       1.37750013      -3.46079989
H       -0.20140008       2.28690016      -3.04560005
O        0.00000000       0.00000000       0.00000000
H        0.55930009      -0.82950009      -0.00000000
H        0.55900005       0.82950009      -0.00000000
6
Properties=species:S:1:pos:R:3 energy=-0.7121985914532606 pbc="F F F"
O        1.26850021       2.12719977      -2.68160021
H        1.79149980       1.66660023      -3.39899993
H        1.43980017       3.10740001      -2.78250002
O        0.00000000       0.00000000       0.00000000
H        0.55920008      -0.82910003       0.00000000
H        0.55870000       0.82910003       0.00000000
6
Properties=species:S:1:pos:R:3 energy=-4.43950059773696 pbc="F F F"
O        1.06700011       2.63380016       0.01170011
H        1.89749982       2.74179994       0.55839996
H        1.13570002       3.10010001      -0.86950007
O        0.00000000       0.00000000       0.00000000
H        0.55970015      -0.82920005      -0.00000000
H        0.55870000       0.82920005      -0.00000000
6
Properties=species:S:1:pos:R:3 energy=28.03060574815232 pbc="F F F"
O       -1.30969983       0.57639992       1.51580007
H       -1.19160018       1.45420014       1.98060022
H       -1.16920011      -0.19699997       2.13320011
O        0.00000000       0.00000000       0.00000000
H        0.55920008      -0.82930006      -0.00000000
H        0.55880002       0.82930006       0.00000000
6
Properties=species:S:1:pos:R:3 energy=5.895971536636848 pbc="F F F"
O        2.38900014      -0.66870007      -0.54399999
H        2.34729992      -1.64770013      -0.34629992
H        3.32080024      -0.31160018      -0.47309977
O        0.00000000       0.00000000       0.00000000
H        0.55970015      -0.82920005       0.00000000
H        0.55910006       0.82920005      -0.00000000
6
Properties=species:S:1:pos:R:3 energy=8.83380691643648 pbc="F F F"
O       -0.76120025       0.00249983       2.30850012
H       -1.39039989      -0.75439979       2.48710007
H       -0.01649975      -0.26569988       1.69739993
O        0.00000000       0.00000000       0.00000000
H        0.55910006      -0.82930006      -0.00000000
H        0.55970015       0.82930006      -0.00000000
6
Properties=species:S:1:pos:R:3 energy=-4.7161252976962205 pbc="F F F"
O       -1.78149994       0.11159977       2.15070000
H       -2.69580015      -0.02809984       1.77120004
H       -1.07520024       0.08790004       1.44340016
O        0.00000000       0.00000000       0.00000000
H        0.55900005      -0.82920005      -0.00000000
H        0.55920008       0.82920005       0.00000000
6
Properties=species:S:1:pos:R:3 energy=1.2969158305610107 pbc="F F F"
O       -0.70699980       0.16989975      -3.35919998
H        0.27110013      -0.00219979      -3.24479981
H       -0.89029991       1.10959994      -3.64759998
O        0.00000000       0.00000000       0.00000000
H        0.55950012      -0.82940008      -0.00000000
H        0.55849998       0.82940008       0.00000000
6
Properties=species:S:1:pos:R:3 energy=-4.655480669036939 pbc="F F F"
O        1.21419975       2.56219984      -0.05500003
H        1.48929993       3.14390000      -0.82089990
H        0.49420018       3.05209993       0.43639974
O        0.00000000       0.00000000       0.00000000
H        0.55829995      -0.82930006       0.00000000
H        0.55900005       0.82930006      -0.00000000
6
Properties=species:S:1:pos:R:3 energy=-2.124412007310779 pbc="F F F"
O       -1.87999993      -0.19229982       2.43419981
H       -0.96659985       0.05099998       2.10790015
H       -2.06959989       0.39259975       3.22309984
O        0.00000000       0.00000000       0.00000000
H        0.55880002      -0.82950009      -0.00000000
H        0.55940011       0.82950009       0.00000000
6
Properties=species:S:1:pos:R:3 energy=-4.402947383917886 pbc="F F F"
O       -1.72579981       0.04349995       2.21609995
H       -1.71400022      -0.69709995       2.88830000
H       -1.03289993      -0.08299986       1.50560018
O        0.00000000       0.00000000       0.00000000
H        0.55960014      -0.82910003      -0.00000000
H        0.55839996       0.82910003       0.00000000
6
Properties=species:S:1:pos:R:3 energy=0.1427177995053488 pbc="F F F"
O        3.83019998      -0.21869994       0.71000024
H        3.17420016      -0.93409990       0.47059994
H        4.26130001       0.18079974      -0.09890005
O        0.00000000       0.00000000       0.00000000
H        0.59600012      -0.80249988       0.00000000
H        0.59630016       0.80249988       0.00000000
6
Properties=species:S:1:pos:R:3 energy=1.0911740296960961 pbc="F F F"
O        1.48469979      -1.36079983      -3.08889997
H        2.37199979      -0.90159996      -3.12340021
H        1.27269976      -1.69920019      -2.17169987
O        0.00000000       0.00000000       0.00000000
H        0.55900005      -0.82900002       0.00000000
H        0.55839996       0.82900002      -0.00000000
6
Properties=species:S:1:pos:R:3 energy=0.8305206240028218 pbc="F F F"
O       -0.16220022       0.78200009      -3.84469996
H        0.83760021       0.75179994      -3.85889991
H       -0.55630019       0.58510013      -4.74219986
O        0.00000000       0.00000000       0.00000000
H        0.55880002      -0.82940008      -0.00000000
H        0.55900005       0.82940008      -0.00000000
6
Properties=species:S:1:pos:R:3 energy=-3.4130776135424816 pbc="F F F"
O        1.71060025       2.10289995       0.01429996
H        1.47930007       2.92540009       0.53460022
H        2.54220012       1.66479996       0.35520015
O        0.00000000       0.00000000       0.00000000
H        0.55920008      -0.82900002       0.00000000
H        0.55970015       0.82900002      -0.00000000
6
Properties=species:S:1:pos:R:3 energy=-4.070796517175374 pbc="F F F"
O       -1.89680025       0.55819993      -1.87669998
H       -1.90559994       0.06149992      -2.74489986
H       -1.13429981       0.27860016      -1.29270001
O        0.00000000       0.00000000       0.00000000
H        0.55870000      -0.82900002      -0.00000000
H        0.55890003       0.82900002      -0.00000000
6
Properties=species:S:1:pos:R:3 energy=1.267599670881257 pbc="F F F"
O       -1.14680004      -0.49649999       3.37989981
H       -0.73940026      -1.40740023       3.31220005
H       -1.09019977      -0.12820006       4.30769986
O        0.00000000       0.00000000       0.00000000
H        0.55870000      -0.82950009      -0.00000000
H        0.55930009       0.82950009       0.00000000
6
Properties=species:S:1:pos:R:3 energy=-2.786676580920042 pbc="F F F"
O       -1.35520008      -1.14730011      -2.63469976
H       -2.26550023      -1.18509977      -2.22209977
H       -0.65170025      -0.89870007      -1.96920016
O        0.00000000       0.00000000       0.00000000
H        0.55890003      -0.82920005      -0.00000000
H        0.55940011       0.82920005       0.00000000
6
Properties=species:S:1:pos:R:3 energy=-2.08429777285925 pbc="F F F"
O        1.45929982      -2.92809995       1.25219997
H        0.90310017      -3.26739991       2.01129991
H        2.10760011      -2.22639986       1.54649975
O        0.00000000       0.00000000       0.00000000
H        0.59560006      -0.80269991       0.00000000
H        0.59600012       0.80269991      -0.00000000
6
Properties=species:S:1:pos:R:3 energy=7.680830048784188 pbc="F F F"
O       -1.97809986      -1.31550014       0.64440025
H       -1.72269989      -2.17300006       1.09019977
H       -2.80319984      -1.41350006       0.08739997
O        0.00000000       0.00000000       0.00000000
H        0.55890003      -0.82920005       0.00000000
H        0.55970015       0.82920005       0.00000000
6
Properties=species:S:1:pos:R:3 energy=-1.2375845543918944 pbc="F F F"
O        3.76640026      -0.27379999       0.51910009
H        3.92580008      -0.58989976      -0.41579993
H        4.61129994       0.02650014       0.96269982
O        0.00000000       0.00000000       0.00000000
H        0.55829995      -0.82920005      -0.00000000
H        0.55940011       0.82920005      -0.00000000
6
Properties=species:S:1:pos:R:3 energy=1.4144868658048142 pbc="F F F"
O        2.56599986      -0.92900022      -2.26020000
H        2.21479977      -1.42100009      -1.46399997
H        2.65530010       0.05200013      -2.08570011
O        0.00000000       0.00000000       0.00000000
H        0.55940011      -0.82869998       0.00000000
H        0.55880002       0.82869998       0.00000000
6
Properties=species:S:1:pos:R:3 energy=29.305173500608248 pbc="F F F"
O       -1.16950015       1.48750020       0.83050024
H       -1.90889989       1.42339991       1.50100004
H       -0.78339976       0.59109994       0.61140023
O        0.00000000       0.00000000       0.00000000
H        0.55900005      -0.82890000       0.00000000
H        0.55940011       0.82890000      -0.00000000
6
Properties=species:S:1:pos:R:3 energy=-1.615483900298344 pbc="F F F"
O        3.39730021       0.35880014       1.65279981
H        2.60639990       0.04699993       2.17949994
H        4.24849975       0.27999983       2.17260000
O        0.00000000       0.00000000       0.00000000
H        0.59610013      -0.80269991       0.00000000
H        0.59620015       0.80269991      -0.00000000
6
Properties=species:S:1:pos:R:3 energy=-0.3002994136588037 pbc="F F F"
O       -1.13379974      -1.99150021      -2.98120024
H       -2.05710020      -1.70290019      -2.72880017
H       -0.52760026      -2.04469999      -2.18740003
O        0.00000000       0.00000000       0.00000000
H        0.55980016      -0.82910003      -0.00000000
H        0.55849998       0.82910003       0.00000000
6
Properties=species:S:1:pos:R:3 energy=4.271480924627366 pbc="F F F"
O        0.40829990      -1.61910022      -2.25750013
H        0.96170020      -2.15220022      -1.61800006
H        0.05789992      -2.18000001      -3.00779986
O        0.00000000       0.00000000       0.00000000
H        0.55940011      -0.82920005       0.00000000
H        0.55900005       0.82920005      -0.00000000
6
Properties=species:S:1:pos:R:3 energy=0.3556450865478671 pbc="F F F"
O        0.85769994      -2.68989983      -2.73150003
H        1.08639975      -2.53050001      -1.77079998
H        0.37340014      -1.91410011      -3.13559986
O        0.00000000       0.00000000       0.00000000
H        0.55890003      -0.82910003       0.00000000
H        0.55950012       0.82910003       0.00000000
6
Properties=species:S:1:pos:R:3 energy=-4.1665689768829735 pbc="F F F"
O       -1.86879989       0.53249991      -1.98569990
H       -2.05660012      -0.24940016      -2.58109993
H       -1.16610019       0.32510002      -1.30490019
O        0.00000000       0.00000000       0.00000000
H        0.55950012      -0.82940008      -0.00000000
H        0.55890003       0.82940008       0.00000000
6
Properties=species:S:1:pos:R:3 energy=-4.2258062046551075 pbc="F F F"
O        1.28849993       2.48300001      -0.06839986
H        1.25310010       3.02420012       0.77140014
H        2.22810011       2.30359994      -0.35940023
O        0.00000000       0.00000000       0.00000000
H        0.55910006      -0.82890000       0.00000000
H        0.55859999       0.82890000      -0.00000000
6
Properties=species:S:1:pos:R:3 energy=-0.03890451241852032 pbc="F F F"
O        1.08260026      -1.01039985       3.39380024
H        1.71479980      -1.70799987       3.72990026
H        0.67310018      -0.48509992       4.13949982
O        0.00000000       0.00000000       0.00000000
H        0.55839996      -0.82910003       0.00000000
H        0.55950012       0.82910003       0.00000000
6
Properties=species:S:1:pos:R:3 energy=-0.25624778233124273 pbc="F F F"
O        3.69109993       1.43640020       0.55469995
H        3.33020002       1.09409981      -0.31289984
H        4.67349995       1.57160022       0.42569978
O        0.00000000       0.00000000       0.00000000
H        0.55829995      -0.82930006      -0.00000000
H        0.55910006       0.82930006      -0.00000000
6
Properties=species:S:1:pos:R:3 energy=0.9777427212802935 pbc="F F F"
O        2.10229987       1.19999981      -2.46659974
H        2.47839987       1.06010017      -1.55049980
H        1.59089984       2.05899994      -2.44090025
O        0.00000000       0.00000000       0.00000000
H        0.55900005      -0.82940008      -0.00000000
H        0.55920008       0.82940008      -0.00000000
6
Properties=species:S:1:pos:R:3 energy=2.909104341931197 pbc="F F F"
O       -2.55970001      -0.93260022       0.59890001
H       -1.89109995      -1.55389977       1.00649981
H       -3.40619992      -1.03549978       1.12200015
O        0.00000000       0.00000000       0.00000000
H        0.55870000      -0.82950009      -0.00000000
H        0.55930009       0.82950009       0.00000000
6
Properties=species:S:1:pos:R:3 energy=1.0911677307559333 pbc="F F F"
O       -2.51459982      -1.70779985       0.82520000
H       -1.62190010      -2.08339977       0.57810017
H       -2.41349999      -1.29400020       1.73029993
O        0.00000000       0.00000000       0.00000000
H        0.55920008      -0.82920005      -0.00000000
H        0.55859999       0.82920005       0.00000000
6
Properties=species:S:1:pos:R:3 energy=-1.3948829170406312 pbc="F F F"
O        1.55849990       1.81520006       1.17409976
H        1.20749984       2.25680003       1.99969981
H        2.48579988       2.11609975       0.95239991
O        0.00000000       0.00000000       0.00000000
H        0.55859999      -0.82900002      -0.00000000
H        0.55970015       0.82900002       0.00000000
6
Properties=species:S:1:pos:R:3 energy=-3.7251048450185427 pbc="F F F"
O       -1.56280000       1.20950013      -1.74300018
H       -2.53780001       1.05300020      -1.90030023
H       -1.19309987       0.60079976      -1.04130009
O        0.00000000       0.00000000       0.00000000
H        0.55950012      -0.82900002      -0.00000000
H        0.55849998       0.82900002      -0.00000000
6
Properties=species:S:1:pos:R:3 energy=-3.728228025019492 pbc="F F F"
O       -1.57729998       1.07579980       2.05529993
H       -1.29489980       0.63739977       1.20230014
H       -2.10869974       0.40039982       2.56619989
O        0.00000000       0.00000000       0.00000000
H        0.55900005      -0.82950009       0.00000000
H        0.55910006       0.82950009      -0.00000000
6
Properties=species:S:1:pos:R:3 energy=-4.041807674526006 pbc="F F F"
O       -1.48239999       0.87479978       2.26440008
H       -0.89120004       1.51310020       2.75720005
H       -1.00510014       0.43250024       1.50530013
O        0.00000000       0.00000000       0.00000000
H        0.55970015      -0.82920005      -0.00000000
H        0.55870000       0.82920005      -0.00000000
6
Properties=species:S:1:pos:R:3 energy=-0.8769945006721864 pbc="F F F"
O       -3.62760025      -1.15180023       0.42629987
H       -2.97179993      -1.70960011       0.93480001
H       -3.24390021      -0.81249974      -0.43240022
O        0.00000000       0.00000000       0.00000000
H        0.55970015      -0.82879999       0.00000000
H        0.55849998       0.82879999       0.00000000
6
Properties=species:S:1:pos:R:3 energy=-3.400868126191963 pbc="F F F"
O       -1.58699980       0.13920006      -2.42260025
H       -1.52070025       1.10579992      -2.67139979
H       -0.87410020      -0.03330006      -1.74320021
O        0.00000000       0.00000000       0.00000000
H        0.55890003      -0.82910003       0.00000000
H        0.55920008       0.82910003       0.00000000
6
Properties=species:S:1:pos:R:3 energy=-2.4801570791215215 pbc="F F F"
O       -1.87750010       1.03100019      -1.65130012
H       -1.19530019       0.68740014      -1.00540018
H       -2.55459980       0.30489974      -1.76910026
O        0.00000000       0.00000000       0.00000000
H        0.55859999      -0.82910003       0.00000000
H        0.55900005       0.82910003      -0.00000000
6
Properties=species:S:1:pos:R:3 energy=5.880205436858841 pbc="F F F"
O       -0.47659975      -0.44670018       2.46150006
H        0.23110015      -0.83499983       1.87199983
H       -1.25320011      -0.22310005       1.87249990
O        0.00000000       0.00000000       0.00000000
H        0.55819993      -0.82920005       0.00000000
H        0.55970015       0.82920005      -0.00000000
6
Properties=species:S:1:pos:R:3 energy=0.6836408324337869 pbc="F F F"
O        3.86470022      -0.67610009       0.63049983
H        3.08499993      -1.26380006       0.41340011
H        3.93400021       0.10179994       0.00559975
O        0.00000000       0.00000000       0.00000000
H        0.55870000      -0.82920005       0.00000000
H        0.55859999       0.82920005       0.00000000
6
Properties=species:S:1:pos:R:3 energy=-0.470633672411954 pbc="F F F"
O        1.21640007      -0.17059985       3.56939976
H        0.36039984      -0.54500014       3.92610012
H        2.00490004      -0.44769979       4.11890001
O        0.00000000       0.00000000       0.00000000
H        0.59560006      -0.80259990      -0.00000000