20
Properties=species:S:1:pos:R:3 energy=-3.8059617244080557 pbc="F F F"
C        1.23830007       0.95969991       0.00000000
H        1.04269977       1.71139984       0.56219998
H        1.47650019       1.15219976      -0.90930001
H        2.04600017       0.38740005       0.45640000
C        0.00000000       0.00000000       0.00000000
H        0.05490002      -0.56010021      -0.81639978
H        0.05480000      -0.56030024       0.81639978
N       -1.23830007       0.79419974      -0.00000000
H       -1.56410019       0.91589991      -0.94010024
H       -1.94439974       0.32300024       0.53360007
H       -1.06539988       1.69430001       0.40610011
C        3.55720010      -0.42140022      -3.52760005
H        3.68550018      -0.12279980      -2.60080014
H        2.91009999       0.29189997      -4.03819996
H        4.51320001      -0.33350018      -4.04370023
C        2.92089997      -1.82459984      -3.55700007
H        2.51630007      -1.97270014      -4.46839986
H        3.64979977      -2.50709979      -3.42160003
O        1.91070015      -2.03860016      -2.57150013
H        1.02159988      -1.80090011      -2.95560023
20
Properties=species:S:1:pos:R:3 energy=-1.0360579337952802 pbc="F F F"
C        1.19100009       0.96870016       0.00000000
H        1.17779977       1.46689986       0.85590021
H        1.08490006       1.58019987      -0.77110009
H        2.12389982       0.41249998      -0.09089994
C        0.00000000       0.00000000       0.00000000
H        0.02159996      -0.52710019      -0.81629977
H        0.02139993      -0.52680014       0.81649979
N       -1.19100009       0.88929976      -0.00000000
H       -1.85819995       0.55089993      -0.66309979
H       -1.60080021       0.89669978       0.91249995
H       -0.91330006       1.81739985      -0.24870006
C       -2.91639984       1.63909994      -3.06279989
H       -2.12240013       0.97590014      -3.12139992
H       -3.77920000       1.09990012      -2.67179985
H       -2.58590010       2.51129987      -2.49880018
C       -3.61079993       2.00640026      -4.46670015
H       -4.59760007       2.08660024      -4.31350017
H       -3.37450009       2.99230026      -4.86699995
O       -3.38369983       0.87310006      -5.40699989
H       -2.45969980       0.52620006      -5.27489980
20
Properties=species:S:1:pos:R:3 energy=-5.529043802252028 pbc="F F F"
C        1.19100009       0.96870016       0.00000000
H        1.17779977       1.46689986       0.85590021
H        1.08490006       1.58019987      -0.77110009
H        2.12389982       0.41249998      -0.09089994
C        0.00000000       0.00000000       0.00000000
H        0.02159996      -0.52710019      -0.81629977
H        0.02139993      -0.52680014       0.81649979
N       -1.19100009       0.88929976      -0.00000000
H       -1.85819995       0.55089993      -0.66309979
H       -1.60080021       0.89669978       0.91249995
H       -0.91330006       1.81739985      -0.24870006
C        2.38039995       4.21770004      -1.88440004
H        2.76920021       3.47919991      -1.34299990
H        1.61570026       4.73400026      -1.30410008
H        3.18510015       4.92879991      -2.07140015
C        1.96580019       3.69220009      -3.25939981
H        1.61239978       4.44860017      -3.80170008
H        2.76060002       3.29219980      -3.70529987
O        0.95269995       2.69429994      -3.14800007
H        0.07370010       3.13549984      -2.98050014
20
Properties=species:S:1:pos:R:3 energy=-2.6038488993450395 pbc="F F F"
C        1.22120024       0.89029991       0.00000000
H        1.27999976       1.35520008       0.88299991
H        1.12560014       1.56760017      -0.72840026
H        2.14289993       0.33099981      -0.16100005
C        0.00000000       0.00000000       0.00000000
H        0.00180026      -0.56250003      -0.81590024
H        0.00030004      -0.56260004       0.81659981
N       -1.22120024       0.86069985       0.00000000
H       -1.31679980       1.29449975      -0.89490004
H       -2.02229991       0.29479986       0.18750019
H       -1.13029976       1.56119977       0.70510005
C       -1.15729997       3.75189975       2.33080017
H       -2.10330001       3.76590019       1.99599981
H       -0.91279999       2.71989994       2.58280018
H       -0.49820023       4.12809976       1.54840003
C       -1.00200022       4.70060018       3.53930016
H       -0.01729986       4.73509989       3.80359983
H       -1.35339981       5.69949995       3.28070025
O       -1.74809987       4.19320020       4.65600006
H       -1.28379978       3.39380024       5.05070011
20
Properties=species:S:1:pos:R:3 energy=0.02288816677861002 pbc="F F F"
C        1.24640018       0.91790020       0.00000000
H        1.22800016       1.46960025      -0.86779982
H        2.07589975       0.31639982      -0.08210026
H        1.42490012       1.61070006       0.82240012
C        0.00000000       0.00000000       0.00000000
H        0.06179996      -0.59389981      -0.81619975
H        0.06149992      -0.59399983       0.81590024
N       -1.24640018       0.73359995      -0.00000000
H       -1.82360022       0.44819987      -0.77420001
H       -1.75450026       0.56640006       0.85319982
H       -1.07329997       1.72229983      -0.07949988
C        4.67329993       1.02799975      -2.01570002
H        4.90699993       1.82859989      -2.57749994
H        3.68170015       0.87109977      -2.07810006
H        4.90629982       1.23029997      -1.05809988
C        5.42489984      -0.18199992      -2.49239978
H        4.82209979      -0.76949986      -3.02520026
H        5.92280003      -0.79020022      -1.73719987
O        6.49909994       0.24990023      -3.31489991
H        6.65259996      -0.39890013      -4.07019984
20
Properties=species:S:1:pos:R:3 energy=-3.3472795224736154 pbc="F F F"
C        1.22179979       0.89520009       0.00000000
H        1.46679984       1.10239995       0.95519979
H        0.98400026       1.75959994      -0.45949992
H        2.09370021       0.46740000      -0.49479974
C        0.00000000       0.00000000       0.00000000
H       -0.01679979      -0.54410001      -0.81629977
H       -0.01739988      -0.54379996       0.81619975
N       -1.22179979       0.91129977       0.00000000
H       -1.97910000       0.42090014      -0.41700011
H       -1.43580011       1.14830025       0.94109986
H       -1.00440004       1.72699998      -0.52390025
C        1.27450002       5.65040024       0.31299985
H        2.07870015       6.07690014      -0.08309987
H        0.70270024       6.41019975       0.84579981
H        0.65170025       5.29190014      -0.50649985
C        1.74620012       4.52689988       1.18299999
H        2.42950019       3.96360026       0.65259985
H        2.28799979       4.92310014       1.96729988
O        0.79159989       3.65280020       1.71859982
H        1.18840024       2.73930011       1.82740024
20
Properties=species:S:1:pos:R:3 energy=-4.225404107494713 pbc="F F F"
C        1.28069986       0.85830003      -0.00000000
H        1.09019977       1.70509998      -0.49129976
H        1.99979983       0.34870026      -0.46740000
H        1.63010023       1.11100014       1.00110009
C        0.00000000       0.00000000       0.00000000
H        0.01610022      -0.59670022      -0.81609974
H        0.01550013      -0.59660021       0.81609974
N       -1.28069986       0.78920007       0.00000000
H       -1.26279991       1.43409987      -0.76060016
H       -2.04819996       0.16080002      -0.10300011
H       -1.35769991       1.28180002       0.86350026
C       -4.58949995       1.21980003       2.76979976
H       -3.98969981       1.85900006       2.25939988
H       -3.95470003       0.43399992       3.17939986
H       -5.11740026       1.78700021       3.53639974
C       -5.62450019       0.63700024       1.78819986
H       -5.98779992      -0.20840004       2.17529986
H       -6.36299979       1.30010003       1.67549993
O       -5.05900026       0.35600026       0.51469998
H       -4.56369992      -0.51029987       0.55650022
20
Properties=species:S:1:pos:R:3 energy=-9.016161889279124 pbc="F F F"
C        1.28069986       0.85830003      -0.00000000
H        1.09019977       1.70509998      -0.49129976
H        1.99979983       0.34870026      -0.46740000
H        1.63010023       1.11100014       1.00110009
C        0.00000000       0.00000000       0.00000000
H        0.01610022      -0.59670022      -0.81609974
H        0.01550013      -0.59660021       0.81609974
N       -1.28069986       0.78920007       0.00000000
H       -1.26279991       1.43409987      -0.76060016
H       -2.04819996       0.16080002      -0.10300011
H       -1.35769991       1.28180002       0.86350026
C       -0.76279995       5.28810012       2.20449986
H       -0.89649975       5.46949995       1.22589986
H       -0.49760015       6.14369976       2.65920014
H       -0.01980022       4.62060023       2.31119998
C       -2.03629983       4.75009994       2.81260015
H       -2.86869981       5.05709998       2.30269980
H       -2.14239986       5.09050006       3.84260019
O       -1.94589996       3.32680005       2.73849999
H       -2.83199978       2.90529982       2.96170006
20
Properties=species:S:1:pos:R:3 energy=0.8158556679576336 pbc="F F F"
C        1.25690012       0.90039978      -0.00000000
H        1.41549982       1.20570011       0.90690020
H        1.12640026       1.60949989      -0.64859980
H        2.08650022       0.26899983      -0.31790003
C        0.00000000       0.00000000       0.00000000
H        0.02379974      -0.57509974      -0.81649979
H        0.02389976      -0.57519975       0.81649979
N       -1.25690012       0.81210022      -0.00000000
H       -1.41149977       1.17680015      -0.91639998
H       -2.02259996       0.23010001       0.26509979
H       -1.16210014       1.56259997       0.65090014
C        3.07359987       5.31650000      -1.21889990
H        4.01179984       5.46270003      -1.47960011
H        2.56899977       6.28229974      -1.19120012
H        2.58489996       4.75999979      -2.01859991
C        2.90420019       4.48719994       0.04999984
H        3.16429979       3.55730012      -0.13220011
H        3.43300010       4.88930001       0.77319987
O        1.52179988       4.51869975       0.41599996
H        1.24330026       3.61109998       0.72090023
20
Properties=species:S:1:pos:R:3 energy=-1.7554290132068715 pbc="F F F"
C        1.25030022       0.87050021      -0.00000000
H        1.22139974       1.47029982       0.79589998
H        1.26269990       1.41129974      -0.83589996
H        2.16429986       0.27830011       0.04609980
C        0.00000000       0.00000000       0.00000000
H        0.00100014      -0.57500025      -0.81629977
H        0.00090013      -0.57649994       0.81609974
N       -1.25030022       0.84010004       0.00000000
H       -1.06219995       1.69769997      -0.47150007
H       -1.97369975       0.34239988      -0.47029989
H       -1.51719974       1.02010020       0.94370024
C       -1.69679984       3.09169985       2.79519974
H       -2.54759984       3.31590006       2.30160017
H       -1.59819984       2.00620023       2.80110007
H       -0.86300018       3.58650012       2.29700004
C       -1.76699996       3.66050026       4.22940015
H       -0.82089990       3.87050000       4.54439977
H       -2.36509985       4.57170002       4.24629996
O       -2.32499986       2.67420020       5.10900010
H       -1.74159998       1.85640021       5.13050004
20
Properties=species:S:1:pos:R:3 energy=4.317579910999608 pbc="F F F"
C        1.21439978       0.89719985      -0.00000000
H        2.02740012       0.32670025      -0.27639984
H        1.10129979       1.57969980      -0.76460021
H        1.49629989       1.45370006       0.89379988
C        0.00000000       0.00000000       0.00000000
H        0.01460000      -0.58200021      -0.81600025
H        0.01289975      -0.63560004       0.88540025
N       -1.21439978       0.79020022       0.00000000
H       -1.67859985       0.71429980       0.88629986
H       -1.00050000       1.75640001      -0.16960024
H       -1.83849974       0.46890022      -0.71730024
C       -1.63179994       2.62429984       4.07240015
H       -1.91350002       2.55799976       5.03059985
H       -0.98270007       1.89139999       3.86569983
H       -1.19369995       3.50990013       3.91580021
C       -2.85960008       2.49180022       3.16590002
H       -3.32989997       3.37120014       2.99820006
H       -3.58769976       1.77250023       3.54079984
O       -2.38299980       1.98619998       1.92979974
H       -1.82660013       1.15760001       2.07309987
20
Properties=species:S:1:pos:R:3 energy=1.9315092626565453 pbc="F F F"
C        1.19759999       0.88820013       0.00000000
H        2.01740026       0.30909982      -0.20409995
H        1.11070010       1.53120018      -0.79360018
H        1.40179995       1.47210008       0.89749989
C        0.00000000       0.00000000       0.00000000
H       -0.00090013      -0.60189992      -0.80410011
H        0.02399977      -0.61820016       0.89729986
N       -1.19759999       0.80020008      -0.00000000
H       -1.02069975       1.69930020      -0.41310007
H       -1.92440001       0.34679999      -0.52660012
H       -1.52710012       0.94149992       0.93950016
C       -2.62900000       2.52390011       2.09089980
H       -1.88870013       3.12330019       1.73259974
H       -2.85670019       1.86449980       1.35009987
H       -3.44790014       3.11500005       2.21889983
C       -2.24620008       1.86099982       3.30570017
H       -1.71939994       1.10640000       2.88819999
H       -3.09899985       1.43439991       3.83379997
O       -1.47399983       2.48229990       4.28279995
H       -1.45340002       3.48699998       4.15469991
20
Properties=species:S:1:pos:R:3 energy=-8.663801515252656 pbc="F F F"
C        1.25509986       0.82139998      -0.00000000
H        1.26780011       1.39610018      -0.82879999
H        2.05000023       0.20170013      -0.03559987
H        1.36389975       1.47049985       0.86889998
C        0.00000000       0.00000000       0.00000000
H       -0.01850004      -0.59160001      -0.81609974
H       -0.01850004      -0.59170002       0.81639978
N       -1.25509986       0.83990001       0.00000000
H       -1.68790014       0.76949986       0.89419994
H       -1.00780000       1.78660015      -0.18809974
H       -1.86929997       0.49820023      -0.70630023
C       -1.03179978       5.11640011       4.01479974
H       -1.96970023       5.46149985       4.10890015
H       -0.35220024       5.85450018       4.44060007
H       -0.97689976       4.17160024       4.55559980
C       -0.75250004       4.89460025       2.51980005
H       -0.71409977       5.78830012       2.07219974
H        0.13419987       4.43989997       2.43179999
O       -1.74149997       4.11180004       1.91800015
H       -2.34900016       4.68940014       1.36799981
20
Properties=species:S:1:pos:R:3 energy=-10.093399259455158 pbc="F F F"
C        1.21149989       0.92120015      -0.00000000
H        1.02169990       1.68569982      -0.59970013
H        1.99450012       0.40600010      -0.31790003
H        1.39960016       1.28690023       1.00950025
C        0.00000000       0.00000000       0.00000000
H        0.03400016      -0.56799977      -0.81639978
H        0.03300002      -0.56770025       0.81649979
N       -1.21149989       0.81210022       0.00000000
H       -1.07080014       1.64330002      -0.54619978
H       -1.97660017       0.29240004      -0.39289979
H       -1.44970001       1.07919977       0.93880006
C       -4.92459983      -2.62330023       2.06010010
H       -4.38590008      -2.76580024       1.22420014
H       -4.75190020      -3.38479999       2.69150006
H       -5.89899975      -2.61659979       1.82020026
C       -4.53990017      -1.31309980       2.70859989
H       -3.73059983      -1.46969974       3.28810026
H       -5.32910024      -0.86889998       3.31509994
O       -4.22409991      -0.33459981       1.73759993
H       -4.80340026       0.48320018       1.85089995
20
Properties=species:S:1:pos:R:3 energy=-9.562590375836823 pbc="F F F"
C        1.21809979       0.90000025       0.00000000
H        1.15369998       1.53090014       0.74469997
H        1.29539988       1.33889983      -0.87030018
H        2.09509988       0.27070007       0.15199980
C        0.00000000       0.00000000       0.00000000
H        0.02739974      -0.57770011      -0.81649979
H        0.02749975      -0.57760010       0.81659981
N       -1.21809979       0.80450017      -0.00000000
H       -1.01329974       1.74149997      -0.29909995
H       -1.89590012       0.40590009      -0.62580020
H       -1.61050003       0.83730016       0.92400003
C       -1.19019998       4.87299976      -1.57629984
H       -1.29710012       5.15680014      -2.53959974
H       -1.82290012       4.10430002      -1.40640009
H       -1.47499997       5.64620016      -0.99120024
C        0.20689982       4.48060004      -1.29169987
H        0.34169978       4.28790016      -0.32359980
H        0.91700007       5.25550016      -1.58049992
O        0.61130022       3.36629996      -2.05849987
H        1.38550023       3.60510017      -2.66029977
20
Properties=species:S:1:pos:R:3 energy=0.14214762996222927 pbc="F F F"
C        1.21139987       0.90660015      -0.00000000
H        1.24310023       1.40000022       0.86210005
H        1.13730025       1.54009988      -0.76139975
H        2.13119982       0.33199996      -0.10849985
C        0.00000000       0.00000000       0.00000000
H        0.03589991      -0.57959986      -0.81590024
H        0.03579990      -0.57979989       0.81679984
N       -1.21139987       0.79129985      -0.00000000
H       -1.76339997       0.59009979       0.81769997
H       -0.99070017       1.77369987      -0.00120017
H       -1.76470015       0.58810003      -0.81619975
C        4.49660025       3.39179995      -1.14690005
H        4.45019987       2.39439987      -1.27299981
H        5.54830026       3.66879987      -1.07470017
H        4.04759974       3.87599974      -2.01409978
C        3.72120006       3.82690003       0.08560023
H        3.80679976       4.77859984       0.19770008
H        2.82149985       3.48699998       0.03300002
O        4.41940017       3.16129988       1.12319979
H        4.59820015       2.21710010       0.85220021
20
Properties=species:S:1:pos:R:3 energy=-5.206501596296108 pbc="F F F"
C        1.22810018       0.86300018       0.00000000
H        1.35130004       1.23900017       0.91499978
H        1.09809986       1.59980007      -0.65760005
H        2.10549980       0.27780004      -0.27540022
C        0.00000000       0.00000000       0.00000000
H       -0.00219979      -0.57820018      -0.81600025
H       -0.00209978      -0.57860024       0.81619975
N       -1.22810018       0.84030007      -0.00000000
H       -1.10229994       1.61200025       0.62230023
H       -1.39739984       1.18000009      -0.92470013
H       -2.00580017       0.29049977       0.30209986
C        1.19999981      -4.87319979       2.11560021
H        1.54100001      -4.01599992       2.50570012
H        0.35989977      -5.14099997       2.59179990
H        1.89019982      -5.58949988       2.23640025
C        0.91080023      -4.68230017       0.62950021
H       -0.07999995      -4.50209999       0.49110026
H        1.19289984      -5.56359983       0.05349982
O        1.64559983      -3.56430007       0.13089992
H        2.41249984      -3.34439996       0.74439993
20
Properties=species:S:1:pos:R:3 energy=-0.7029852745796877 pbc="F F F"
C        1.27339986       0.86079986      -0.00000000
H        1.31729988       1.34390003       0.86320021
H        1.21610003       1.49279991      -0.75929997
H        2.15729990       0.23299990      -0.11219986
C        0.00000000       0.00000000       0.00000000
H        0.01359985      -0.59369979      -0.81619975
H        0.01419994      -0.59409984       0.81659981
N       -1.27339986       0.79640006       0.00000000
H       -1.06000016       1.75070024      -0.19629987
H       -1.88349991       0.43379990      -0.70079996
H       -1.70349975       0.72169981       0.89739988
C       -4.35899988       1.93700025      -1.31729988
H       -3.69890000       1.94209993      -0.54339990
H       -3.90549978       2.47660014      -2.14870024
H       -4.58949995       0.89840002      -1.55429983
C       -5.61849985       2.63449974      -0.82270016
H       -5.86039998       2.26609979       0.07179982
H       -5.43599986       3.61290024      -0.74689976
O       -6.69320002       2.43379975      -1.71060025
H       -6.38239996       2.56889975      -2.65250023
20
Properties=species:S:1:pos:R:3 energy=-8.684339180997531 pbc="F F F"
C        1.24300022       0.89399991       0.00000000
H        1.13519994       1.58230018      -0.71310016
H        2.03930026       0.32520003      -0.19219981
H        1.39250019       1.39779990       0.95489974
C        0.00000000       0.00000000       0.00000000
H        0.02720024      -0.58140012      -0.81609974
H        0.02650014      -0.58130010       0.81609974
N       -1.24300022       0.79949998       0.00000000
H       -1.26730004       1.38410003      -0.81210022
H       -2.03659987       0.18829977      -0.00830014
H       -1.27500009       1.37189985       0.82129996
C       -3.24760022       2.23769991       3.27769982
H       -2.87830014       2.14080015       4.20450025
H       -4.13350001       2.87110016       3.32499979
H       -2.48549984       2.71760014       2.66389976
C       -3.63710004       0.87020017       2.70149992
H       -4.53560008       0.61659993       3.05849980
H       -3.68419999       0.94509991       1.70570007
O       -2.70380025      -0.14360017       3.04220008
H       -2.43849991      -0.04249981       3.99950017
20
Properties=species:S:1:pos:R:3 energy=1.1207579000087136 pbc="F F F"
C        1.30870022       0.82379979      -0.00000000
H        1.19309987       1.58349982      -0.64199991
H        2.04600017       0.22839976      -0.32089994
H        1.57639985       1.22450018       0.97769987
C        0.00000000       0.00000000       0.00000000
H        0.00770006      -0.61279991      -0.81629977
H        0.00719999      -0.61339999       0.81629977
N       -1.30870022       0.77440004       0.00000000
H       -2.05889993       0.12560021       0.06970005
H       -1.31029992       1.39150004       0.77900018
H       -1.37139978       1.28719975      -0.84899974
C       -1.87680000       3.49930018       1.51620012
H       -1.21690014       3.15170008       0.83760021
H       -1.53360000       4.37999975       1.86600002
H       -1.91299995       2.84759993       2.28429978
C       -3.22409998       3.66559994       0.90330020
H       -3.50409982       2.78199994       0.47620022
H       -3.23759982       4.43129978       0.12759997
O       -4.15139996       3.99059994       1.93700025
H       -4.28750011       3.20340016       2.54920007
20
Properties=species:S:1:pos:R:3 energy=-0.47604475512766675 pbc="F F F"
C        1.26880025       0.85429998       0.00000000
H        1.30209979       1.36819984       0.84549976
H        1.24099993       1.45939983      -0.78379982
H        2.15850007       0.22839976      -0.06769976
C        0.00000000       0.00000000       0.00000000
H        0.01460000      -0.59789986      -0.81669982
H        0.01369987      -0.59839994       0.81659981
N       -1.26880025       0.78960013      -0.00000000
H       -2.04379986       0.16520013      -0.08520018
H       -1.33859979       1.29909988       0.85550015
H       -1.26020007       1.42450006      -0.77070004
C       -4.27919996       1.84080007      -1.34140019
H       -3.64580024       1.85329977      -0.54749997
H       -3.80769989       2.38639976      -2.15880012
H       -4.48500015       0.79700014      -1.57910024
C       -5.58219988       2.53359993      -0.92790006
H       -5.87920006       2.16369977      -0.05150006
H       -5.41339976       3.51219993      -0.84520025
O       -6.61599995       2.32680012      -1.88769999
H       -6.26039974       2.51650010      -2.80070001
20
Properties=species:S:1:pos:R:3 energy=-2.3928383107384223 pbc="F F F"
C        1.26629989       0.88589980       0.00000000
H        1.15540022       1.57910024      -0.70409991
H        2.04650025       0.30539981      -0.20319981
H        1.42239976       1.37410017       0.96200024
C        0.00000000       0.00000000       0.00000000
H        0.01840002      -0.58039997      -0.81600025
H        0.01759990      -0.58019995       0.81649979
N       -1.26629989       0.81150013      -0.00000000
H       -2.02919986       0.22080025       0.25250008
H       -1.17610005       1.55310018       0.66079998
H       -1.41199984       1.18450021      -0.91300002
C       -3.21949985       2.16290018       3.20459980
H       -2.87060008       2.00709983       4.13269990
H       -4.09569983       2.80719989       3.27670020
H       -2.44109975       2.66230006       2.62769981
C       -3.59909983       0.85200018       2.51109984
H       -4.42779980       0.49100025       2.93620007
H       -3.77200001       1.03820017       1.54429996
O       -2.57029996      -0.12709990       2.61069999
H       -2.60080014      -0.72050017       1.80929974
20
Properties=species:S:1:pos:R:3 energy=3.3507762172586437 pbc="F F F"
C        1.31289977       0.84569979       0.00000000
H        1.18700004       1.60519979      -0.64089975
H        2.05419978       0.25700020      -0.32680026
H        1.59200000       1.25260002       0.97200010
C        0.00000000       0.00000000       0.00000000
H        0.01920014      -0.60849981      -0.81669982
H        0.01900011      -0.60879986       0.81639978
N       -1.31289977       0.76589987      -0.00000000
H       -2.06010010       0.11179980      -0.06020026
H       -1.37450023       1.28670020       0.84510024
H       -1.32230007       1.37599992      -0.78520002
C       -1.86390024       3.44959986       1.51270015
H       -1.74849992       3.91379992       2.40159985
H       -1.66359979       2.46870005       1.64490026
H       -1.17720021       3.82370010       0.87410020
C       -3.23489996       3.64359993       0.98829982
H       -3.52420008       2.75309999       0.58190019
H       -3.27519998       4.40490019       0.20930017
O       -4.13820017       3.97239995       2.04850001
H       -4.29389998       3.17199984       2.63770020
20
Properties=species:S:1:pos:R:3 energy=-1.8719630586551343 pbc="F F F"
C        1.25109981       0.84430012      -0.00000000
H        1.31850005       1.30649990       0.88269986
H        1.17370023       1.52089975      -0.72969992
H        2.13959998       0.23349997      -0.16039996
C        0.00000000       0.00000000       0.00000000
H       -0.00619984      -0.58689986      -0.81619975
H       -0.00689994      -0.58659981       0.81689985
N       -1.25109981       0.83340013       0.00000000
H       -1.19170019       1.50649978      -0.73289985
H       -2.03699993       0.23840015      -0.14750021
H       -1.33360012       1.29370016       0.88070010
C       -1.88870013      -2.39270015       2.21899985
H       -1.77490004      -2.13429974       1.24180005
H       -1.03860023      -3.00869999       2.51220000
H       -1.98310005      -1.47660021       2.80220023
C       -3.21800016      -3.17269994       2.32620004
H       -3.40460021      -3.36509978       3.30960020
H       -4.02750000      -2.60249986       1.87060016
O       -3.09489978      -4.42330021       1.63879990
H       -2.42779994      -5.01440015       2.10490024
20
Properties=species:S:1:pos:R:3 energy=1.0419541907444798 pbc="F F F"
C        1.23900017       0.87559989      -0.00000000
H        1.26609986       1.38840012       0.85309981
H        1.18760013       1.49909976      -0.77500013
H        2.14870024       0.28109999      -0.08379997
C        0.00000000       0.00000000       0.00000000
H        0.00949979      -0.57919980      -0.81609974
H        0.00890023      -0.57889976       0.81669982
N       -1.23900017       0.82600011      -0.00000000
H       -1.58580016       0.90330020       0.93389987
H       -1.03020007       1.73580020      -0.35719991
H       -1.92830005       0.38919978      -0.57800016
C       -1.04880012      -3.63040013      -3.77950004
H       -0.95519979      -3.43030023      -4.76290021
H       -2.10470021      -3.56790007      -3.51650003
H       -0.65500020      -4.63219979      -3.60810007
C       -0.25089985      -2.59819977      -2.98229987
H        0.27979980      -2.04449996      -3.61679975
H       -0.88770006      -2.02450023      -2.47469986
O        0.62629975      -3.23119996      -2.07329990
H        1.18680001      -2.54240015      -1.61319989
20
Properties=species:S:1:pos:R:3 energy=-0.7032726325147404 pbc="F F F"
C        1.26750007       0.86499994      -0.00000000
H        1.29410022       1.37619994       0.84679995
H        1.23130011       1.46820005      -0.78270019
H        2.15570020       0.23689994      -0.06889993
C        0.00000000       0.00000000       0.00000000
H        0.01600020      -0.59240013      -0.81570021
H        0.01580017      -0.59250014       0.81590024
N       -1.26750007       0.79569996       0.00000000
H       -1.81349982       0.54100009      -0.79559994
H       -1.77679979       0.60069974       0.83579995
H       -1.04419998       1.76709997      -0.04060006
C       -4.33369992       1.92629976      -1.31220019
H       -3.69519999       1.94070026      -0.52789977
H       -3.85949999       2.44559988      -2.14500023
H       -4.55080016       0.88269986      -1.53999987
C       -5.62199983       2.65250023      -0.88740002
H       -5.90029994       2.31140001       0.00910026
H       -5.43130024       3.63130026      -0.83010018
O       -6.68869990       2.44579991      -1.80929974
H       -6.36279976       2.62509996      -2.73580013
20