25
Properties=species:S:1:pos:R:3 energy=-3.6725995756926917 pbc="F F F"
C       -1.23299983      -0.79119983      -0.00000000
H       -1.04820004      -1.68539977      -0.40029980
H       -1.92719989      -0.31609977      -0.53649996
H       -1.62769988      -0.94419978       1.00440004
N        0.00000000       0.00000000       0.00000000
H       -0.09310026       1.00769999       0.00010001
C        1.23299983      -0.50289986      -0.00000000
N        1.43699976      -1.81500004       0.04050005
H        0.66329982      -2.44700008       0.05140004
H        2.37289992      -2.17400020       0.05900008
N        2.27809994       0.31940025      -0.00750003
H        2.13219997       1.31009989      -0.03310003
H        3.20579998      -0.04920025       0.01150008
C        2.55760023      -2.07880017      -3.51239996
H        1.94060025      -2.25209988      -2.73839998
H        2.43650015      -2.88389990      -4.23710021
H        2.30160017      -1.12029990      -3.96389978
N        3.92680022      -2.04679976      -3.01939995
H        4.54620003      -1.21000020      -3.10840015
C        4.49369983      -3.08680020      -2.41540026
O        3.90350002      -4.14490008      -2.18619986
C        5.94250024      -2.89169997      -1.99180026
H        6.20190026      -1.96029993      -2.25509979
H        6.01780004      -2.95669986      -0.90640012
H        6.58120019      -3.63599988      -2.46749988
25
Properties=species:S:1:pos:R:3 energy=-2.447151051903075 pbc="F F F"
C       -1.23299983      -0.79119983      -0.00000000
H       -1.04820004      -1.68539977      -0.40029980
H       -1.92719989      -0.31609977      -0.53649996
H       -1.62769988      -0.94419978       1.00440004
N        0.00000000       0.00000000       0.00000000
H       -0.09310026       1.00769999       0.00010001
C        1.23299983      -0.50289986      -0.00000000
N        1.43699976      -1.81500004       0.04050005
H        0.66329982      -2.44700008       0.05140004
H        2.37289992      -2.17400020       0.05900008
N        2.27809994       0.31940025      -0.00750003
H        2.13219997       1.31009989      -0.03310003
H        3.20579998      -0.04920025       0.01150008
C        3.39879990      -4.40790009      -6.40620023
H        2.69339980      -4.18270026      -7.09650026
H        3.17999994      -5.39639994      -6.00229991
H        4.35740018      -4.41900011      -6.92490026
N        3.39630007      -3.37090009      -5.37650023
H        4.18600021      -2.69799994      -5.24679996
C        2.38850007      -3.20219999      -4.52369994
O        1.37599992      -3.90020007      -4.51909980
C        2.55760023      -2.07880017      -3.51239996
H        1.94060025      -2.25209988      -2.73839998
H        3.58290012      -2.05479986      -3.14319990
H        2.30160017      -1.12029990      -3.96389978
25
Properties=species:S:1:pos:R:3 energy=-6.529337181339736 pbc="F F F"
C       -1.22780013      -0.79429975       0.00000000
H       -1.93920004      -0.30279996       0.49279998
H       -1.05359976      -1.67300009       0.43570017
H       -1.59039977      -0.98760025      -1.00960026
N        0.00000000       0.00000000       0.00000000
H       -0.08979978       1.00369994      -0.00040006
C        1.22780013      -0.51339979      -0.00000000
N        1.39829997      -1.82899995      -0.00150022
H        0.62080001      -2.45100013      -0.02270011
H        2.33209983      -2.20829988       0.01799996
N        2.28630007       0.28819996       0.00160023
H        2.15110006       1.28250012      -0.01669977
H        3.20610002      -0.09240016       0.02009974
C       -3.12189999      -5.02669981       0.82600011
H       -2.42980023      -4.30900005       0.90749975
H       -3.01449977      -5.50310006      -0.14849982
H       -2.96590014      -5.77999997       1.59799981
N       -4.44830013      -4.40090014       0.92249981
H       -5.12209988      -4.60059997       1.67509987
C       -4.85469976      -3.51579993       0.01009988
O       -4.12169989      -3.09760017      -0.88820013
C       -6.29479996      -3.01839981       0.10779975
H       -6.54249988      -2.58439988      -0.77100008
H       -7.00229984      -3.82460023       0.30129974
H       -6.36039995      -2.23980021       0.86789984
25
Properties=species:S:1:pos:R:3 energy=-12.467853621420712 pbc="F F F"
C       -1.22460020      -0.80239987      -0.00000000
H       -1.31970022      -1.25030022       0.88969982
H       -1.15719996      -1.49959984      -0.71630009
H       -2.12109995      -0.21019977      -0.18360015
N        0.00000000       0.00000000       0.00000000
H       -0.09150003       0.99879976       0.00070010
C        1.22460020      -0.51860001       0.00000000
N        1.39650024      -1.83690003      -0.01460000
H        0.61569980      -2.45470014      -0.04589977
H        2.32779974      -2.21559988       0.00450012
N        2.28720020       0.27440008       0.00060009
H        2.15840006       1.27039996      -0.01910012
H        3.20479983      -0.11100021       0.01920014
C        2.89449984       4.25319990       0.65510022
H        2.79470020       5.24569980       0.47220017
H        1.93240012       3.91639977       1.04110006
H        3.11900010       3.75939977      -0.29039975
N        4.01000011       4.09380008       1.59930000
H        4.62750017       4.92129988       1.87500026
C        4.38930004       2.95160018       2.21380015
O        3.78519981       1.88480010       2.08510002
C        5.65799975       3.02740005       3.08260012
H        6.42740013       3.18979978       2.45269985
H        5.61980004       3.86659996       3.77710022
H        5.83119998       2.09469982       3.61940012
25
Properties=species:S:1:pos:R:3 energy=-21.270280893068698 pbc="F F F"
C       -1.22460020      -0.80239987      -0.00000000
H       -1.31970022      -1.25030022       0.88969982
H       -1.15719996      -1.49959984      -0.71630009
H       -2.12109995      -0.21019977      -0.18360015
N        0.00000000       0.00000000       0.00000000
H       -0.09150003       0.99879976       0.00070010
C        1.22460020      -0.51860001       0.00000000
N        1.39650024      -1.83690003      -0.01460000
H        0.61569980      -2.45470014      -0.04589977
H        2.32779974      -2.21559988       0.00450012
N        2.28720020       0.27440008       0.00060009
H        2.15840006       1.27039996      -0.01910012
H        3.20479983      -0.11100021       0.01920014
C       -0.12810004       3.89889988       3.05350013
H       -0.71570000       3.49610025       2.34979975
H       -0.58560020       4.83359987       3.37749999
H       -0.06479987       3.22749995       3.90979987
N        1.17569999       4.17490019       2.43620010
H        1.93069987       4.71440006       2.93079981
C        1.52010016       3.77210003       1.20640021
O        0.78719978       3.06229982       0.51510004
C        2.89449984       4.25319990       0.65510022
H        2.79470020       5.24569980       0.47220017
H        3.72160012       4.13510025       1.35510006
H        3.11900010       3.75939977      -0.29039975
25
Properties=species:S:1:pos:R:3 energy=-12.483771878730558 pbc="F F F"
C       -1.22249989      -0.79400024      -0.00000000
H       -1.17320016      -1.47499997       0.73339992
H       -1.31059996      -1.26360003      -0.88080012
H       -2.12029983      -0.19539974       0.15420012
N        0.00000000       0.00000000       0.00000000
H       -0.08239977       0.99899978       0.00020003
C        1.22249989      -0.52740023      -0.00000000
N        1.36370025      -1.84689990       0.01550013
H        0.57999992      -2.45699994       0.00669991
H        2.29400013      -2.24340021       0.03479975
N        2.30080006       0.25570001       0.00140020
H        2.17519985       1.25169989      -0.01739988
H        3.21050013      -0.13950011       0.01940017
C        2.38240024       5.38730021       1.19279982
H        3.14100011       5.05249985       1.76480017
H        1.44819980       4.98580023       1.58550011
H        2.35270017       6.47560024       1.24630017
N        2.62099990       4.94709992      -0.19150024
H        2.38150011       5.51500020      -1.01799989
C        3.17259993       3.76299977      -0.45169984
O        3.58280011       3.01939995       0.42720000
C        3.29289990       3.35940001      -1.91030009
H        2.46220017       2.84439999      -2.18299992
H        4.08169991       2.73059990      -2.01829986
H        3.42089993       4.21619983      -2.57190019
25
Properties=species:S:1:pos:R:3 energy=0.8089348992162537 pbc="F F F"
C       -1.22249989      -0.79400024      -0.00000000
H       -1.17320016      -1.47499997       0.73339992
H       -1.31059996      -1.26360003      -0.88080012
H       -2.12029983      -0.19539974       0.15420012
N        0.00000000       0.00000000       0.00000000
H       -0.08239977       0.99899978       0.00020003
C        1.22249989      -0.52740023      -0.00000000
N        1.36370025      -1.84689990       0.01550013
H        0.57999992      -2.45699994       0.00669991
H        2.29400013      -2.24340021       0.03479975
N        2.30080006       0.25570001       0.00140020
H        2.17519985       1.25169989      -0.01739988
H        3.21050013      -0.13950011       0.01940017
C        3.29289990       3.35940001      -1.91030009
H        2.46220017       2.84439999      -2.18299992
H        4.08169991       2.73059990      -2.01829986
H        3.20650008       3.64920021      -0.86310020
N        3.46349975       4.50109984      -2.79189979
H        2.75100021       4.81969997      -3.46930007
C        4.58159986       5.21420000      -2.76800003
O        5.52520009       4.93760013      -2.03209975
C        4.64980022       6.41700021      -3.70710013
H        5.44210022       6.27559983      -4.34220010
H        3.75919974       6.58929978      -4.31159989
H        4.92690016       7.33819983      -3.19449993
25
Properties=species:S:1:pos:R:3 energy=-0.3213488248573574 pbc="F F F"
C       -1.21970002      -0.80279993      -0.00000000
H       -1.96739990      -0.26760015       0.37889988
H       -1.07400007      -1.62550009       0.53999994
H       -1.49909976      -1.10700009      -1.00880015
N        0.00000000       0.00000000       0.00000000
H       -0.08780002       0.99609989       0.00040006
C        1.21970002      -0.52829983      -0.00000000
N        1.35280026      -1.83999995       0.01490004
H        0.57110021      -2.45420006       0.00639987
H        2.28509990      -2.24469987       0.03539984
N        2.30379996       0.23480016      -0.01299977
H        2.18659991       1.23629978      -0.04249981
H        3.20929996      -0.16570020       0.00510021
C        3.61150004      -0.53070018      -3.51020017
H        4.01660001      -0.61010005      -2.59750019
H        2.68299989       0.02909998      -3.39799979
H        4.36060012      -0.03290001      -4.12610000
N        3.32219991      -1.88979976      -3.97750016
H        2.39809987      -2.19029992      -4.32740007
C        4.26290025      -2.83989987      -3.97660003
O        5.38489986      -2.63519984      -3.49590022
C        3.91120008      -4.23829986      -4.56530015
H        4.31909992      -4.92769975      -3.94460015
H        2.83790011      -4.41639974      -4.63229980
H        4.42560001      -4.43959992      -5.50499981
25
Properties=species:S:1:pos:R:3 energy=-7.141308117865157 pbc="F F F"
C       -1.21970002      -0.80279993      -0.00000000
H       -1.96739990      -0.26760015       0.37889988
H       -1.07400007      -1.62550009       0.53999994
H       -1.49909976      -1.10700009      -1.00880015
N        0.00000000       0.00000000       0.00000000
H       -0.08780002       0.99609989       0.00040006
C        1.21970002      -0.52829983      -0.00000000
N        1.35280026      -1.83999995       0.01490004
H        0.57110021      -2.45420006       0.00639987
H        2.28509990      -2.24469987       0.03539984
N        2.30379996       0.23480016      -0.01299977
H        2.18659991       1.23629978      -0.04249981
H        3.20929996      -0.16570020       0.00510021
C        1.18989993       2.36439975      -2.87120017
H        0.65999987       1.89200008      -2.15610026
H        0.56189994       2.40879984      -3.76100001
H        1.43849998       3.38960016      -2.59670008
N        2.38970024       1.56509980      -3.11540011
H        3.34620022       1.95189977      -3.11910011
C        2.30470009       0.25710022      -3.35230004
O        1.23930021      -0.33799977      -3.40199984
C        3.61150004      -0.53070018      -3.51020017
H        4.01660001      -0.61010005      -2.59750019
H        3.39640008      -1.54120004      -3.85760025
H        4.36060012      -0.03290001      -4.12610000
25
Properties=species:S:1:pos:R:3 energy=-3.120507188379196 pbc="F F F"
C       -1.25439976      -0.75720020      -0.00000000
H       -1.27090003      -1.36189999       0.77200022
H       -1.35009987      -1.23120010      -0.85379991
H       -2.07969977      -0.05190011       0.09640021
N        0.00000000       0.00000000       0.00000000
H       -0.10929996       1.04090004       0.00050007
C        1.25439976      -0.43349985       0.00000000
N        1.51509997      -1.73830003       0.02029977
H        0.77780001      -2.40700010       0.01510007
H        2.47049978      -2.05189997       0.03979995
N        2.24469987       0.45820026      -0.01059995
H        2.04130002       1.43580011      -0.03810023
H        3.19580012       0.14539990       0.00780007
C        4.39370015       1.68579983       2.58250014
H        3.57190012       2.18110017       2.24749974
H        4.73789976       2.20720025       3.47559992
H        4.13830018       0.65549975       2.83010004
N        5.36729996       1.69110007       1.49689997
H        6.00450023       0.91670003       1.28349974
C        5.47380005       2.76100008       0.69540024
O        4.72540007       3.74400019       0.82509998
C        6.50189981       2.73970016      -0.42569978
H        6.86309977       3.67949984      -0.50870017
H        7.34879978       2.09499987      -0.19050009
H        6.01120014       2.42620024      -1.34719997
25
Properties=species:S:1:pos:R:3 energy=-10.722338772578714 pbc="F F F"
C       -1.23279980      -0.78620017      -0.00000000
H       -1.12280026      -1.57140019      -0.60179990
H       -1.98740015      -0.21660017      -0.31050002
H       -1.47719976      -1.15500017       0.99619991
N        0.00000000       0.00000000       0.00000000
H       -0.08800005       1.00840009       0.00070010
C        1.23279980      -0.50709994      -0.00000000
N        2.27530007       0.31540020       0.00430009
H        2.16349974       1.30219980       0.02819985
H        3.20980003      -0.07239991      -0.01550013
N        1.43749983      -1.82240005       0.00180026
H        0.63630014      -2.43109989       0.02310017
H        2.35499998      -2.19230021      -0.01610022
C        1.33859979       4.41429996       2.53810005
H        1.42259979       3.75719998       1.77540012
H        1.65729994       3.88960012       3.43879988
H        1.97729974       5.27139982       2.32419975
N       -0.06519992       4.83580019       2.59400022
H       -0.35450005       5.82359994       2.75330002
C       -1.07480019       3.97939991       2.44360012
O       -0.91279999       2.76200022       2.32849984
C       -2.47970006       4.59329997       2.41229981
H       -2.42749990       5.45520000       2.92180010
H       -2.76050000       4.84320021       1.38920024
H       -3.21480022       3.91510011       2.84550015
25
Properties=species:S:1:pos:R:3 energy=-1.064953605308419 pbc="F F F"
C       -1.25439976      -0.75720020      -0.00000000
H       -1.27090003      -1.36189999       0.77200022
H       -1.35009987      -1.23120010      -0.85379991
H       -2.07969977      -0.05190011       0.09640021
N        0.00000000       0.00000000       0.00000000
H       -0.10929996       1.04090004       0.00050007
C        1.25439976      -0.43349985       0.00000000
N        1.51509997      -1.73830003       0.02029977
H        0.77780001      -2.40700010       0.01510007
H        2.47049978      -2.05189997       0.03979995
N        2.24469987       0.45820026      -0.01059995
H        2.04130002       1.43580011      -0.03810023
H        3.19580012       0.14539990       0.00780007
C        6.45970005       3.73700023       5.10480002
H        6.96000006       4.59830017       4.83419996
H        5.65229999       4.06989979       5.65429975
H        7.10680016       3.15669974       5.76260010
N        5.99640011       3.06530025       3.93370016
H        6.57070026       3.05469978       3.02529975
C        4.87409992       2.41360000       3.82889979
O        4.20380015       2.30490012       4.82760006
C        4.39370015       1.68579983       2.58250014
H        3.57190012       2.18110017       2.24749974
H        5.12139978       1.68969987       1.77110002
H        4.13830018       0.65549975       2.83010004
25
Properties=species:S:1:pos:R:3 energy=-3.6172158619983397 pbc="F F F"
C       -1.21970002      -0.80279993      -0.00000000
H       -1.96739990      -0.26760015       0.37889988
H       -1.07400007      -1.62550009       0.53999994
H       -1.49909976      -1.10700009      -1.00880015
N        0.00000000       0.00000000       0.00000000
H       -0.08780002       0.99609989       0.00040006
C        1.21970002      -0.52829983      -0.00000000
N        1.35280026      -1.83999995       0.01490004
H        0.57110021      -2.45420006       0.00639987
H        2.28509990      -2.24469987       0.03539984
N        2.30379996       0.23480016      -0.01299977
H        2.18659991       1.23629978      -0.04249981
H        3.20929996      -0.16570020       0.00510021
C        0.25489990       2.74139988      -6.53489983
H       -0.40729976       3.49409996      -6.49960001
H       -0.28890006       1.81550011      -6.72219999
H        0.93920011       3.01000018      -7.33970005
N        0.95249992       2.66990010      -5.25389993
H        1.98040019       2.80369991      -5.15580000
C        0.31389998       2.42630025      -4.11260016
O       -0.90099987       2.25770016      -4.01879980
C        1.18989993       2.36439975      -2.87120017
H        0.65999987       1.89200008      -2.15610026
H        2.08419989       1.76860019      -3.05330010
H        1.43849998       3.38960016      -2.59670008
25
Properties=species:S:1:pos:R:3 energy=-13.548787737877758 pbc="F F F"
C       -1.24749981      -0.78990017       0.00000000
H       -1.12560014      -1.59730024       0.56320013
H       -1.47729978      -1.04249974      -0.93190011
H       -2.08880003      -0.22790022       0.40560004
N        0.00000000       0.00000000       0.00000000
H       -0.09590014       1.01069989       0.00050007
C        1.24749981      -0.49320004      -0.00000000
N        1.46649980      -1.80679991       0.01100001
H        0.69810010      -2.44400017      -0.00130019
H        2.40489980      -2.15460004       0.02970007
N        2.30029999       0.34140026      -0.00619984
H        2.13320011       1.32779981      -0.03040017
H        3.22200021      -0.02129991       0.01170011
C       -1.72350000      -0.61919978       5.08440024
H       -2.05499989      -1.10450026       4.25900021
H       -2.09030024       0.40640016       5.04300006
H       -2.15009992      -1.12789994       5.94900012
N       -0.26410017      -0.70120002       5.12619994
H        0.26020014      -1.05650018       5.96030017
C        0.51530007      -0.33189995       4.10999978
O        0.08289984       0.03859977       3.01819978
C        2.01899997      -0.38710001       4.35899988
H        2.47640011       0.22479977       3.69809989
H        2.28390026      -0.05920011       5.36420004
H        2.38339986      -1.39479999       4.15970011
25
Properties=species:S:1:pos:R:3 energy=-18.347436320480227 pbc="F F F"
C       -1.23279980      -0.80450017      -0.00000000
H       -1.13710022      -1.54190015      -0.64939992
H       -1.99910026      -0.22249997      -0.22050021
H       -1.39669974      -1.23190020       0.98929997
N        0.00000000       0.00000000       0.00000000
H       -0.10109983       1.00339989       0.00050007
C        1.23279980      -0.50080008       0.00000000
N        1.44730019      -1.82559998      -0.01289975
H        0.67069983      -2.44979996      -0.04259982
H        2.38039995      -2.17509983       0.00699996
N        2.27309975       0.32799991       0.00850017
H        2.12419987       1.31759992      -0.00530024
H        3.20360019      -0.03720010       0.02759977
C       -2.54140000      -4.89020014      -2.40199991
H       -2.71229990      -3.92749979      -2.18450014
H       -2.83120020      -5.48359988      -1.53490019
H       -3.11890009      -5.14910009      -3.28939992
N       -1.12250022      -5.06470003      -2.66720024
H       -0.75409975      -5.49940005      -3.54300016
C       -0.18529987      -4.68110000      -1.80920025
O       -0.42850019      -4.15059985      -0.72619994
C        1.25079976      -4.91769989      -2.26450009
H        1.84200024      -4.90890020      -1.44539992
H        1.37040016      -5.88489983      -2.75249990
H        1.54679980      -4.11910004      -2.94460023
25
Properties=species:S:1:pos:R:3 energy=-7.530116296860085 pbc="F F F"
C       -1.21680013      -0.80740006      -0.00000000
H       -1.10979997      -1.56099974       0.64249998
H       -1.37639997      -1.15959978      -0.91820025
H       -2.08759985      -0.22330008       0.29789978
N        0.00000000       0.00000000       0.00000000
H       -0.08999981       0.99450019      -0.00000000
C        1.21680013      -0.52839985      -0.00000000
N        1.43809992      -1.84349993       0.04050005
H        0.64800025      -2.46329980       0.05270023
H        2.36290006      -2.19779995       0.05739985
N        2.25400016       0.28180009      -0.01210017
H        2.13690012       1.27490008      -0.04150019
H        3.18910020      -0.09719980       0.00709997
C        5.54790020       2.30160017      -1.60529981
H        5.17299985       1.36610007      -1.62429992
H        5.73640000       2.54459994      -0.55960014
H        6.49559996       2.23960019      -2.14020007
N        4.52150015       3.16270008      -2.17549989
H        4.57879999       4.20300003      -2.16819989
C        3.42980016       2.67269998      -2.75030011
O        3.25559979       1.48079976      -2.95319988
C        2.41189976       3.66780026      -3.24270003
H        1.50130008       3.22580023      -3.15870003
H        2.38019992       4.57459991      -2.63859980
H        2.66009974       3.89610001      -4.27929998
25
Properties=species:S:1:pos:R:3 energy=-23.55325492251693 pbc="F F F"
C       -1.23279980      -0.80450017      -0.00000000
H       -1.13710022      -1.54190015      -0.64939992
H       -1.99910026      -0.22249997      -0.22050021
H       -1.39669974      -1.23190020       0.98929997
N        0.00000000       0.00000000       0.00000000
H       -0.10109983       1.00339989       0.00050007
C        1.23279980      -0.50080008       0.00000000
N        1.44730019      -1.82559998      -0.01289975
H        0.67069983      -2.44979996      -0.04259982
H        2.38039995      -2.17509983       0.00699996
N        2.27309975       0.32799991       0.00850017
H        2.12419987       1.31759992      -0.00530024
H        3.20360019      -0.03720010       0.02759977
C        0.51530007       4.20179986       2.96890004
H        1.09640014       3.38789991       2.82390020
H       -0.27359996       3.93829977       3.67319998
H        1.16570013       4.97239988       3.38250019
N       -0.01940017       4.63349998       1.67710016
H       -0.69289987       5.41409986       1.56879981
C        0.33600001       4.03630021       0.54180020
O        0.96729995       2.98309998       0.51930012
C       -0.07919984       4.72990019      -0.75340018
H       -1.00190020       4.39640001      -0.98509989
H       -0.15450017       5.81010010      -0.62840005
H        0.63069986       4.49759986      -1.54719985
25
Properties=species:S:1:pos:R:3 energy=-0.5826333606024936 pbc="F F F"
C       -1.23279980      -0.80450017      -0.00000000
H       -1.13710022      -1.54190015      -0.64939992
H       -1.99910026      -0.22249997      -0.22050021
H       -1.39669974      -1.23190020       0.98929997
N        0.00000000       0.00000000       0.00000000
H       -0.10109983       1.00339989       0.00050007
C        1.23279980      -0.50080008       0.00000000
N        1.44730019      -1.82559998      -0.01289975
H        0.67069983      -2.44979996      -0.04259982
H        2.38039995      -2.17509983       0.00699996
N        2.27309975       0.32799991       0.00850017
H        2.12419987       1.31759992      -0.00530024
H        3.20360019      -0.03720010       0.02759977
C        1.25079976      -4.91769989      -2.26450009
H        1.84200024      -4.90890020      -1.44539992
H        0.22440024      -4.74860025      -1.93900001
H        1.54679980      -4.11910004      -2.94460023
N        1.41159978      -6.21779992      -2.92059992
H        1.79780019      -6.32510012      -3.88079990
C        1.07120019      -7.35699991      -2.32770025
O        0.65900025      -7.41010020      -1.17750025
C        1.22810018      -8.62540011      -3.17840024
H        0.67769979      -9.34190023      -2.73890005
H        0.82230011      -8.47829996      -4.17919976
H        2.28099984      -8.90449981      -3.22049999
25
Properties=species:S:1:pos:R:3 energy=-3.244802407205854 pbc="F F F"
C       -1.23160016      -0.79030023      -0.00000000
H       -1.98989998      -0.21389978       0.29119987
H       -1.12709983      -1.55980009       0.62570019
H       -1.46279979      -1.18509977      -0.98939998
N        0.00000000       0.00000000       0.00000000
H       -0.09190009       1.00800003      -0.00000000
C        1.23160016      -0.50500016       0.00000000
N        1.42140014      -1.81339980       0.00510021
H        0.64899986      -2.44569989      -0.01130005
H        2.35900003      -2.18249985       0.02429982
N        2.28310014       0.30639995      -0.00540025
H        2.14040010       1.29889985      -0.02930001
H        3.20670011      -0.06670014       0.01339983
C        0.44190001      -5.81569985       0.67260011
H        0.95489974      -6.67890007       0.45420021
H        0.12200022      -5.36200025      -0.26549985
H       -0.43480004      -6.13419997       1.23659982
N        1.28610012      -4.98309984       1.51580007
H        0.93439995      -4.45719983       2.33889976
C        2.58310022      -4.84489992       1.27570020
O        3.13320004      -5.35800020       0.30720007
C        3.36849974      -3.98370000       2.25239992
H        3.29239983      -4.38280016       3.18279982
H        2.95210025      -3.05899987       2.28990007
H        4.42049980      -3.89579996       1.98099975
25
Properties=species:S:1:pos:R:3 energy=-23.995261097817217 pbc="F F F"
C       -1.23160016      -0.79030023      -0.00000000
H       -1.98989998      -0.21389978       0.29119987
H       -1.12709983      -1.55980009       0.62570019
H       -1.46279979      -1.18509977      -0.98939998
N        0.00000000       0.00000000       0.00000000
H       -0.09190009       1.00800003      -0.00000000
C        1.23160016      -0.50500016       0.00000000
N        1.42140014      -1.81339980       0.00510021
H        0.64899986      -2.44569989      -0.01130005
H        2.35900003      -2.18249985       0.02429982
N        2.28310014       0.30639995      -0.00540025
H        2.14040010       1.29889985      -0.02930001
H        3.20670011      -0.06670014       0.01339983
C        3.36849974      -3.98370000       2.25239992
H        3.29239983      -4.38280016       3.18279982
H        2.95210025      -3.05899987       2.28990007
H        2.80550018      -4.60100003       1.55230006
N        4.77099980      -3.86659996       1.89059988
H        5.52100001      -4.45099999       2.26699992
C        5.13749999      -2.94390012       1.00999979
O        4.32959986      -2.18199978       0.48049978
C        6.60749977      -2.86489979       0.66409993
H        6.81820014      -1.92349988       0.31369995
H        6.80030020      -3.49719988      -0.12019996
H        7.28520009      -3.09919988       1.48499984
25
Properties=species:S:1:pos:R:3 energy=-23.481057914137182 pbc="F F F"
C       -1.24200007      -0.78099994      -0.00000000
H       -1.30020004      -1.31240022       0.83819976
H       -1.25740019      -1.38019999      -0.79360018
H       -2.12680024      -0.14630004      -0.04999984
N        0.00000000       0.00000000       0.00000000
H       -0.09570011       1.01699975       0.00050007
C        1.24200007      -0.48580002       0.00000000
N        1.48770023      -1.77950018       0.01669977
H        0.72639997      -2.43479990       0.00959980
H        2.43000026      -2.11669984       0.03460025
N        2.25939988       0.34350004      -0.09590014
H        2.10569983       1.33070023      -0.18859982
H        3.20159990      -0.00629985      -0.07830023
C       -2.17000015       4.15039982       0.99899978
H       -2.40169986       3.17549982       0.86910001
H       -2.02740012       4.61049982       0.02119990
H       -3.00300022       4.67150019       1.47069988
N       -0.94409977       4.20609995       1.83010011
H       -0.87909987       4.73040026       2.71189984
C        0.17399982       3.55720010       1.46269978
O        0.23339996       2.89389976       0.39800000
C        1.44549993       3.69009978       2.38070000
H        2.22189974       3.34210015       1.85890005
H        1.62130001       4.73660010       2.63000014
H        1.37820023       3.10110015       3.29530025
25
Properties=species:S:1:pos:R:3 energy=-20.81952254029177 pbc="F F F"
C       -1.23339989      -0.79290008       0.00000000